   * xtb version 6.7.0 (08769fc) compiled by 'albert@albert-system' on 2024-03-04

   ID    Z sym.   atoms
    1   15 P      1
    2    6 C      2, 5, 9-14, 20, 23
    3    1 H      3, 4, 6-8, 15-19, 21, 22, 24-26

          program call               : /home/minenky/programs/xtb/xtb-dist/bin/xtb m1_00_PEt2Ph-PBE0-D3-TZ-uniMM_51.xyz --charge 0 --T --ohess extreme --cycles 5000 --acc 0.01 --iterations 5000
          :  Hamiltonian                  GFN2-xTB          :
 * total energy  :   -31.5424773 Eh     change       -0.4263256E-13 Eh
 * total energy  :   -31.5505381 Eh     change       -0.8060824E-02 Eh
 * total energy  :   -31.5532416 Eh     change       -0.2703472E-02 Eh
 * total energy  :   -31.5546237 Eh     change       -0.1382092E-02 Eh
 * total energy  :   -31.5551137 Eh     change       -0.4900015E-03 Eh
 * total energy  :   -31.5553726 Eh     change       -0.2589070E-03 Eh
 * total energy  :   -31.5555603 Eh     change       -0.1876846E-03 Eh
 * total energy  :   -31.5557406 Eh     change       -0.1803851E-03 Eh
 * total energy  :   -31.5559318 Eh     change       -0.1911890E-03 Eh
 * total energy  :   -31.5560714 Eh     change       -0.1395308E-03 Eh
 * total energy  :   -31.5570208 Eh     change        0.5011636E-09 Eh
 * total energy  :   -31.5570210 Eh     change       -0.2806301E-06 Eh
 * total energy  :   -31.5570210 Eh     change       -0.7674277E-08 Eh
 * total energy  :   -31.5570212 Eh     change       -0.1761663E-06 Eh
 * total energy  :   -31.5570213 Eh     change       -0.9192865E-07 Eh
 * total energy  :   -31.5570215 Eh     change       -0.1352985E-06 Eh
 * total energy  :   -31.5570216 Eh     change       -0.1069817E-06 Eh
 * total energy  :   -31.5570216 Eh     change       -0.2561099E-07 Eh
 * total energy  :   -31.5570216 Eh     change       -0.4996541E-07 Eh
   *** GEOMETRY OPTIMIZATION CONVERGED AFTER 73 ITERATIONS ***

 final structure:
================
26
 xtb: 6.7.0 (08769fc)
P            1.62142868805838       -0.24823623549324       -3.04565489907087
C            1.43396528261131        1.51242644459133       -2.45502265542925
H            0.42821498211485        1.83530328779121       -2.73945210200026
H            1.51008531791439        1.55982614861199       -1.36555057805450
C            2.47460962851355        2.41579138402629       -3.10193082723085
H            2.39930385021529        2.36651639380341       -4.18646482022041
H            3.47841337286419        2.10420784589227       -2.81684502247289
H            2.33266817771668        3.44998860504951       -2.79244248873492
C            3.22503041641050       -0.65971541908094       -2.23875067969495
C            3.49834423105654       -0.45601960528116       -0.89114668337395
C            4.21220546300530       -1.20726496843694       -3.05052416807339
C            4.73354435790560       -0.79425559756138       -0.37015951960490
C            5.44864981849754       -1.54554986634834       -2.53034043365946
C            5.71096044256329       -1.33916333700884       -1.18697777791194
H            2.74898197674726       -0.03184966394028       -0.23762817658420
H            3.99846479979922       -1.36529922475998       -4.09871843060803
H            4.93612125678464       -0.63225473984525        0.67925814067213
H            6.20768052004275       -1.96999261826154       -3.17162068645827
H            6.67452889594061       -1.60179515580476       -0.77507596418959
C            0.45271196380073       -1.04960195081415       -1.83094488289184
H            0.63303708858809       -0.67440080172138       -0.82022030652445
H           -0.55821983566758       -0.75354488524567       -2.12620817827227
C            0.58391341680747       -2.56580550877257       -1.86917571304362
H            1.58520592616622       -2.86870841595087       -1.56654884061803
H            0.40722674044187       -2.93736171778118       -2.87668117847688
H           -0.13586377889872       -3.03166939765589       -1.19807012747163

          :  Hamiltonian                  GFN2-xTB          :
         :: gradient norm              0.000046775217 Eh/a0 ::
         :: HOMO-LUMO gap              3.636937567232 eV    ::
         :: SCC energy               -32.077703292956 Eh    ::
         :: -> dispersion             -0.024035295714 Eh    ::
         :: repulsion energy           0.520681657858 Eh    ::

    * Orbital Energies and Occupations

         #    Occupation            Energy/Eh            Energy/eV
      -------------------------------------------------------------
         1        2.0000           -0.6581231             -17.9084
       ...           ...                  ...                  ...
        18        2.0000           -0.4773485             -12.9893
        19        2.0000           -0.4746446             -12.9157
        20        2.0000           -0.4704276             -12.8010
        21        2.0000           -0.4563193             -12.4171
        22        2.0000           -0.4561992             -12.4138
        23        2.0000           -0.4423092             -12.0358
        24        2.0000           -0.4364990             -11.8777
        25        2.0000           -0.4232543             -11.5173
        26        2.0000           -0.4194626             -11.4142
        27        2.0000           -0.4052648             -11.0278
        28        2.0000           -0.4045254             -11.0077
        29        2.0000           -0.3970015             -10.8030
        30        2.0000           -0.3672877              -9.9944 (HOMO)
        31                         -0.2336328              -6.3575 (LUMO)
        32                         -0.2230291              -6.0689
        33                         -0.1548723              -4.2143
        34                         -0.1507533              -4.1022
        35                         -0.0927973              -2.5251
        36                          0.0045925               0.1250
        37                          0.0547993               1.4912
        38                          0.0923307               2.5124
        39                          0.1110128               3.0208
        40                          0.1352279               3.6797
        41                          0.1375530               3.7430
       ...                                ...                  ...
        64                          0.7796735              21.2160
      -------------------------------------------------------------
                  HL-Gap            0.1336550 Eh            3.6369 eV

     #   Z          covCN         q      C6AA      α(0)
     1  15 P        3.056    -0.118   165.595    23.117
     2   6 C        3.748    -0.047    21.475     6.610
     3   1 H        0.926     0.039     2.468     2.457
     4   1 H        0.925     0.042     2.418     2.432
     5   6 C        3.821    -0.096    22.317     6.723
     6   1 H        0.925     0.042     2.428     2.437
     7   1 H        0.925     0.036     2.501     2.473
     8   1 H        0.925     0.033     2.546     2.495
     9   6 C        2.916     0.011    27.767     8.641
    10   6 C        2.961    -0.027    28.681     8.784
    11   6 C        3.016    -0.030    28.728     8.792
    12   6 C        2.919    -0.031    28.784     8.798
    13   6 C        2.918    -0.030    28.749     8.792
    14   6 C        2.920    -0.029    28.734     8.790
    15   1 H        0.926     0.032     2.563     2.504
    16   1 H        0.925     0.040     2.451     2.448
    17   1 H        0.926     0.028     2.620     2.531
    18   1 H        0.926     0.030     2.588     2.516
    19   1 H        0.926     0.029     2.603     2.523
    20   6 C        3.748    -0.047    21.474     6.610
    21   1 H        0.925     0.042     2.420     2.433
    22   1 H        0.926     0.038     2.469     2.457
    23   6 C        3.821    -0.096    22.316     6.723
    24   1 H        0.925     0.036     2.501     2.473
    25   1 H        0.925     0.042     2.428     2.437
    26   1 H        0.925     0.033     2.546     2.495

Wiberg/Mayer (AO) data.
largest (>0.10) Wiberg bond orders for each atom

     #   Z sym  total        # sym  WBO       # sym  WBO       # sym  WBO
 ---------------------------------------------------------------------------
     1  15 P    3.349 --    20 C    1.025     2 C    1.024     9 C    1.007
     2   6 C    3.993 --     1 P    1.024     5 C    1.017     3 H    0.958
                             4 H    0.951
     3   1 H    0.998 --     2 C    0.958
     4   1 H    0.998 --     2 C    0.951
     5   6 C    3.995 --     2 C    1.017     6 H    0.985     8 H    0.984
                             7 H    0.984
     6   1 H    0.998 --     5 C    0.985
     7   1 H    0.999 --     5 C    0.984
     8   1 H    0.999 --     5 C    0.984
     9   6 C    3.983 --    11 C    1.408    10 C    1.400     1 P    1.007
                            14 C    0.108
    10   6 C    3.993 --    12 C    1.450     9 C    1.400    15 H    0.961
                            13 C    0.111
    11   6 C    3.992 --    13 C    1.443     9 C    1.408    16 H    0.964
                            12 C    0.108
    12   6 C    3.993 --    10 C    1.450    14 C    1.432    17 H    0.970
                            11 C    0.108
    13   6 C    3.992 --    11 C    1.443    14 C    1.441    18 H    0.970
                            10 C    0.111
    14   6 C    3.985 --    13 C    1.441    12 C    1.432    19 H    0.971
                             9 C    0.108
    15   1 H    0.999 --    10 C    0.961
    16   1 H    0.998 --    11 C    0.964
    17   1 H    0.999 --    12 C    0.970
    18   1 H    0.999 --    13 C    0.970
    19   1 H    0.999 --    14 C    0.971
    20   6 C    3.993 --     1 P    1.025    23 C    1.017    22 H    0.958
                            21 H    0.951
    21   1 H    0.998 --    20 C    0.951
    22   1 H    0.998 --    20 C    0.958
    23   6 C    3.995 --    20 C    1.017    26 H    0.985    25 H    0.984
                            24 H    0.984
    24   1 H    0.999 --    23 C    0.984
    25   1 H    0.998 --    23 C    0.984
    26   1 H    0.999 --    23 C    0.985
 ---------------------------------------------------------------------------

molecular dipole:
                 x           y           z       tot (Debye)
 q only:       -0.040       0.072       0.224
   full:        0.020       0.147       0.625       1.633

 projected vibrational frequencies (cm⁻¹)
eigval :       -0.00    -0.00    -0.00     0.00     0.00     0.00
eigval :       17.96    50.31    65.03   121.05   122.34   164.17
eigval :      199.55   213.82   232.28   295.27   318.12   320.77
eigval :      363.62   401.31   450.39   586.11   657.51   668.67
eigval :      687.43   704.80   735.18   753.37   780.18   875.04
eigval :      899.16   926.87   932.98   969.38   975.71   998.56
eigval :     1003.60  1020.09  1062.82  1082.81  1085.07  1116.93
eigval :     1121.57  1181.69  1198.83  1217.01  1229.77  1244.60
eigval :     1255.32  1278.90  1315.82  1410.44  1411.10  1423.51
eigval :     1442.64  1449.90  1458.05  1497.23  1497.35  1501.64
eigval :     1501.84  1579.96  1589.64  2931.54  2936.85  2944.72
eigval :     2951.16  3013.96  3014.44  3019.45  3019.66  3029.55
eigval :     3030.66  3061.37  3063.72  3070.76  3076.95  3087.72

   temp. (K)  partition function   enthalpy   heat capacity  entropy
                                   cal/mol     cal/K/mol   cal/K/mol   J/K/mol
 298.15  VIB  0.379E+05             6235.668     39.143     38.704
         ROT  0.118E+07              888.752      2.981     30.762
         INT  0.447E+11             7124.420     42.124     69.466
         TR   0.207E+28             1481.254      4.968     41.214
         TOT                        8605.6740    47.0921   110.6797   463.0840

       T/K    H(0)-H(T)+PV         H(T)/Eh          T*S/Eh         G(T)/Eh
   ------------------------------------------------------------------------
    298.15    0.137140E-01    0.232230E+00    0.525875E-01    0.179643E+00
   ------------------------------------------------------------------------

         :::::::::::::::::::::::::::::::::::::::::::::::::::::
         ::                  THERMODYNAMIC                  ::
         :::::::::::::::::::::::::::::::::::::::::::::::::::::
         :: total free energy         -31.377378793118 Eh   ::
         ::.................................................::
         :: total energy              -31.557021635098 Eh   ::
         :: zero point energy           0.218516334513 Eh   ::
         :: G(RRHO) w/o ZPVE           -0.038873492533 Eh   ::
         :: G(RRHO) contrib.            0.179642841980 Eh   ::
         :::::::::::::::::::::::::::::::::::::::::::::::::::::

           -------------------------------------------------
          | TOTAL ENERGY              -31.557021635098 Eh   |
          | TOTAL ENTHALPY            -31.324791286092 Eh   |
          | TOTAL FREE ENERGY         -31.377378793118 Eh   |
          | GRADIENT NORM               0.000046775951 Eh/α |
          | HOMO-LUMO GAP               3.636937493918 eV   |
           -------------------------------------------------

 * finished run on 2025/07/14 at 11:34:16.783
