   * xtb version 6.7.0 (08769fc) compiled by 'albert@albert-system' on 2024-03-04

   ID    Z sym.   atoms
    1   15 P      1
    2    6 C      2, 5, 9-14, 20, 23
    3    1 H      3, 4, 6-8, 15-19, 21, 22, 24-26

          program call               : /home/minenky/programs/xtb/xtb-dist/bin/xtb m1_00_PEt2Ph-PBE0-D3-TZ-uniMM_69.xyz --charge 0 --T --ohess extreme --cycles 5000 --acc 0.01 --iterations 5000
          :  Hamiltonian                  GFN2-xTB          :
 * total energy  :   -31.5340047 Eh     change       -0.1421085E-13 Eh
 * total energy  :   -31.5475316 Eh     change       -0.1352685E-01 Eh
 * total energy  :   -31.5504741 Eh     change       -0.2942496E-02 Eh
 * total energy  :   -31.5522195 Eh     change       -0.1745389E-02 Eh
 * total energy  :   -31.5529260 Eh     change       -0.7065087E-03 Eh
 * total energy  :   -31.5532860 Eh     change       -0.3600242E-03 Eh
 * total energy  :   -31.5535044 Eh     change       -0.2184022E-03 Eh
 * total energy  :   -31.5536608 Eh     change       -0.1563655E-03 Eh
 * total energy  :   -31.5537926 Eh     change       -0.1318038E-03 Eh
 * total energy  :   -31.5539003 Eh     change       -0.1077319E-03 Eh
 * total energy  :   -31.5556658 Eh     change       -0.1130788E-06 Eh
 * total energy  :   -31.5556659 Eh     change       -0.1320935E-06 Eh
 * total energy  :   -31.5556661 Eh     change       -0.1817324E-06 Eh
 * total energy  :   -31.5556663 Eh     change       -0.2469822E-06 Eh
 * total energy  :   -31.5556666 Eh     change       -0.2856146E-06 Eh
 * total energy  :   -31.5556668 Eh     change       -0.2505818E-06 Eh
 * total energy  :   -31.5556670 Eh     change       -0.1761061E-06 Eh
 * total energy  :   -31.5556671 Eh     change       -0.1111314E-06 Eh
 * total energy  :   -31.5556671 Eh     change       -0.7229772E-09 Eh
   *** GEOMETRY OPTIMIZATION CONVERGED AFTER 68 ITERATIONS ***

 final structure:
================
26
 xtb: 6.7.0 (08769fc)
P            1.53071971562010       -0.08804474193162       -2.71384210277911
C            0.81368674415587        1.45056687524225       -3.48250646242075
H            1.50021859649539        1.73726194695659       -4.28496546933627
H           -0.16295927143325        1.24933649081538       -3.92779937912379
C            0.72620046095679        2.57890633813133       -2.46126156199734
H            1.71480218619424        2.80717811395801       -2.06828850389670
H            0.09141684463042        2.29832261152975       -1.62284819531964
H            0.31903823304111        3.48036767250440       -2.91726992100099
C            0.05249805465057       -0.92895658323150       -2.02115040833459
C           -1.22199302017750       -0.38552204786907       -1.92335133394829
C            0.27950464897050       -2.20133678773487       -1.49932701094086
C           -2.25030222785336       -1.11342921154179       -1.34869061327714
C           -0.74733724127453       -2.92931960199576       -0.93156086082931
C           -2.02010437899455       -2.38627521080416       -0.85774024388593
H           -1.42990614001797        0.60642118097478       -2.29439970048456
H            1.27775605531061       -2.61651488865312       -1.54381261344928
H           -3.23887988461582       -0.68083951147092       -1.28491205107975
H           -0.55678727874479       -3.91828929059725       -0.53998088498640
H           -2.82656846997236       -2.95040173911127       -0.41256655917300
C            1.72246754437749       -1.13397776525886       -4.25158490503020
H            2.53940677195777       -0.68799129859229       -4.82649571734471
H            2.06708980253157       -2.11337726959290       -3.90798328196892
C            0.48671427285085       -1.30043118190234       -5.12513649059502
H            0.19863323634429       -0.35878322515857       -5.58565481960794
H           -0.35207355719784       -1.67270761908232       -4.53947572923345
H            0.69186430219451       -2.01480825558438       -5.92116317995571

          :  Hamiltonian                  GFN2-xTB          :
         :: gradient norm              0.000020912840 Eh/a0 ::
         :: HOMO-LUMO gap              3.648547497943 eV    ::
         :: SCC energy               -32.076673604770 Eh    ::
         :: -> dispersion             -0.024326117866 Eh    ::
         :: repulsion energy           0.521006467677 Eh    ::

    * Orbital Energies and Occupations

         #    Occupation            Energy/Eh            Energy/eV
      -------------------------------------------------------------
         1        2.0000           -0.6587728             -17.9261
       ...           ...                  ...                  ...
        18        2.0000           -0.4754211             -12.9369
        19        2.0000           -0.4741786             -12.9031
        20        2.0000           -0.4670903             -12.7102
        21        2.0000           -0.4610135             -12.5448
        22        2.0000           -0.4564763             -12.4214
        23        2.0000           -0.4434717             -12.0675
        24        2.0000           -0.4381737             -11.9233
        25        2.0000           -0.4239342             -11.5358
        26        2.0000           -0.4163293             -11.3289
        27        2.0000           -0.4071312             -11.0786
        28        2.0000           -0.4029419             -10.9646
        29        2.0000           -0.3995287             -10.8717
        30        2.0000           -0.3641290              -9.9085 (HOMO)
        31                         -0.2300474              -6.2599 (LUMO)
        32                         -0.2216011              -6.0301
        33                         -0.1545688              -4.2060
        34                         -0.1502568              -4.0887
        35                         -0.0931747              -2.5354
        36                          0.0037149               0.1011
        37                          0.0491646               1.3378
        38                          0.0992613               2.7010
        39                          0.1124083               3.0588
        40                          0.1210880               3.2950
        41                          0.1307067               3.5567
       ...                                ...                  ...
        64                          0.7774050              21.1543
      -------------------------------------------------------------
                  HL-Gap            0.1340817 Eh            3.6485 eV

     #   Z          covCN         q      C6AA      α(0)
     1  15 P        3.030    -0.114   165.426    23.106
     2   6 C        3.748    -0.045    21.454     6.606
     3   1 H        0.926     0.040     2.447     2.446
     4   1 H        0.925     0.046     2.368     2.407
     5   6 C        3.821    -0.097    22.342     6.726
     6   1 H        0.925     0.041     2.434     2.440
     7   1 H        0.925     0.039     2.464     2.455
     8   1 H        0.925     0.031     2.569     2.507
     9   6 C        2.915     0.012    27.743     8.637
    10   6 C        2.955    -0.033    28.819     8.805
    11   6 C        3.033    -0.030    28.717     8.790
    12   6 C        2.920    -0.032    28.787     8.799
    13   6 C        2.918    -0.030    28.748     8.792
    14   6 C        2.920    -0.031    28.774     8.797
    15   1 H        0.926     0.036     2.506     2.476
    16   1 H        0.925     0.035     2.523     2.484
    17   1 H        0.926     0.027     2.629     2.535
    18   1 H        0.926     0.029     2.606     2.524
    19   1 H        0.926     0.028     2.617     2.530
    20   6 C        3.747    -0.046    21.461     6.608
    21   1 H        0.926     0.040     2.450     2.447
    22   1 H        0.926     0.042     2.421     2.433
    23   6 C        3.780    -0.096    22.347     6.734
    24   1 H        0.925     0.037     2.487     2.466
    25   1 H        0.925     0.038     2.471     2.458
    26   1 H        0.925     0.033     2.540     2.492

Wiberg/Mayer (AO) data.
largest (>0.10) Wiberg bond orders for each atom

     #   Z sym  total        # sym  WBO       # sym  WBO       # sym  WBO
 ---------------------------------------------------------------------------
     1  15 P    3.374 --     2 C    1.030     9 C    1.018    20 C    1.012
     2   6 C    3.995 --     1 P    1.030     5 C    1.016     3 H    0.956
                             4 H    0.949
     3   1 H    0.998 --     2 C    0.956
     4   1 H    0.998 --     2 C    0.949
     5   6 C    3.997 --     2 C    1.016     6 H    0.985     8 H    0.985
                             7 H    0.983
     6   1 H    0.998 --     5 C    0.985
     7   1 H    0.998 --     5 C    0.983
     8   1 H    0.999 --     5 C    0.985
     9   6 C    3.982 --    10 C    1.404    11 C    1.390     1 P    1.018
                            14 C    0.106
    10   6 C    3.993 --    12 C    1.439     9 C    1.404    15 H    0.961
                            13 C    0.107
    11   6 C    3.992 --    13 C    1.457     9 C    1.390    16 H    0.962
                            12 C    0.110
    12   6 C    3.993 --    14 C    1.442    10 C    1.439    17 H    0.970
                            11 C    0.110
    13   6 C    3.991 --    11 C    1.457    14 C    1.428    18 H    0.970
                            10 C    0.107
    14   6 C    3.992 --    12 C    1.442    13 C    1.428    19 H    0.971
                             9 C    0.106
    15   1 H    0.999 --    10 C    0.961
    16   1 H    0.999 --    11 C    0.962
    17   1 H    0.999 --    12 C    0.970
    18   1 H    0.999 --    13 C    0.970
    19   1 H    0.998 --    14 C    0.971
    20   6 C    3.994 --     1 P    1.012    23 C    1.012    21 H    0.957
                            22 H    0.956
    21   1 H    0.998 --    20 C    0.957
    22   1 H    0.998 --    20 C    0.956
    23   6 C    3.997 --    20 C    1.012    24 H    0.985    26 H    0.983
                            25 H    0.983
    24   1 H    0.999 --    23 C    0.985
    25   1 H    0.999 --    23 C    0.983
    26   1 H    0.999 --    23 C    0.983
 ---------------------------------------------------------------------------

molecular dipole:
                 x           y           z       tot (Debye)
 q only:       -0.126       0.061      -0.286
   full:       -0.432       0.004      -0.491       1.663

 projected vibrational frequencies (cm⁻¹)
eigval :       -0.00    -0.00     0.00     0.00     0.00     0.00
eigval :       25.02    64.59    85.28   113.47   161.56   170.51
eigval :      201.53   222.39   248.16   262.75   314.47   361.37
eigval :      366.33   392.79   473.24   585.84   648.67   659.33
eigval :      679.03   690.40   736.64   760.55   769.45   872.87
eigval :      896.09   925.85   931.64   967.52   982.29   995.11
eigval :     1013.56  1017.27  1063.77  1077.68  1084.86  1115.18
eigval :     1123.37  1181.73  1203.80  1222.73  1230.78  1250.35
eigval :     1268.46  1280.25  1317.24  1407.87  1412.80  1421.39
eigval :     1448.93  1451.32  1461.95  1496.55  1499.48  1505.03
eigval :     1506.50  1578.12  1589.25  2936.16  2941.27  2951.26
eigval :     2955.38  3011.79  3012.28  3023.48  3025.32  3034.21
eigval :     3041.06  3054.56  3067.45  3074.38  3086.72  3093.58

   temp. (K)  partition function   enthalpy   heat capacity  entropy
                                   cal/mol     cal/K/mol   cal/K/mol   J/K/mol
 298.15  VIB  0.143E+05             6119.170     39.485     37.320
         ROT  0.115E+07              888.752      2.981     30.720
         INT  0.164E+11             7007.922     42.466     68.041
         TR   0.207E+28             1481.254      4.968     41.214
         TOT                        8489.1759    47.4340   109.2544   457.1203

       T/K    H(0)-H(T)+PV         H(T)/Eh          T*S/Eh         G(T)/Eh
   ------------------------------------------------------------------------
    298.15    0.135284E-01    0.232469E+00    0.519103E-01    0.180559E+00
   ------------------------------------------------------------------------

         :::::::::::::::::::::::::::::::::::::::::::::::::::::
         ::                  THERMODYNAMIC                  ::
         :::::::::::::::::::::::::::::::::::::::::::::::::::::
         :: total free energy         -31.375108339080 Eh   ::
         ::.................................................::
         :: total energy              -31.555667137093 Eh   ::
         :: zero point energy           0.218940712691 Eh   ::
         :: G(RRHO) w/o ZPVE           -0.038381914679 Eh   ::
         :: G(RRHO) contrib.            0.180558798012 Eh   ::
         :::::::::::::::::::::::::::::::::::::::::::::::::::::

           -------------------------------------------------
          | TOTAL ENERGY              -31.555667137093 Eh   |
          | TOTAL ENTHALPY            -31.323198061436 Eh   |
          | TOTAL FREE ENERGY         -31.375108339080 Eh   |
          | GRADIENT NORM               0.000020912755 Eh/α |
          | HOMO-LUMO GAP               3.648547454908 eV   |
           -------------------------------------------------

 * finished run on 2025/07/14 at 11:38:01.213
