   * xtb version 6.7.0 (08769fc) compiled by 'albert@albert-system' on 2024-03-04

   ID    Z sym.   atoms
    1   15 P      1
    2    6 C      2, 5, 9-14, 20, 23
    3    1 H      3, 4, 6-8, 15-19, 21, 22, 24-26

          program call               : /home/minenky/programs/xtb/xtb-dist/bin/xtb m1_00_PEt2Ph-PBE0-D3-TZ-uniMM_12.xyz --charge 0 --T --ohess extreme --cycles 5000 --acc 0.01 --iterations 5000
          :  Hamiltonian                  GFN2-xTB          :
 * total energy  :   -31.5465182 Eh     change       -0.1421085E-13 Eh
 * total energy  :   -31.5520961 Eh     change       -0.5577925E-02 Eh
 * total energy  :   -31.5532495 Eh     change       -0.1153324E-02 Eh
 * total energy  :   -31.5537429 Eh     change       -0.4934023E-03 Eh
 * total energy  :   -31.5538933 Eh     change       -0.1503938E-03 Eh
 * total energy  :   -31.5540168 Eh     change       -0.1234931E-03 Eh
 * total energy  :   -31.5541093 Eh     change       -0.9255320E-04 Eh
 * total energy  :   -31.5541827 Eh     change       -0.7341478E-04 Eh
 * total energy  :   -31.5542474 Eh     change       -0.6462656E-04 Eh
 * total energy  :   -31.5543119 Eh     change       -0.6452462E-04 Eh
 * total energy  :   -31.5546763 Eh     change       -0.3981309E-06 Eh
 * total energy  :   -31.5546766 Eh     change       -0.3390379E-06 Eh
 * total energy  :   -31.5546770 Eh     change       -0.3311647E-06 Eh
 * total energy  :   -31.5546773 Eh     change       -0.3083624E-06 Eh
 * total energy  :   -31.5546776 Eh     change       -0.2649791E-06 Eh
 * total energy  :   -31.5546778 Eh     change       -0.2251879E-06 Eh
 * total energy  :   -31.5546780 Eh     change       -0.1874253E-06 Eh
 * total energy  :   -31.5546782 Eh     change       -0.1883946E-06 Eh
 * total energy  :   -31.5546782 Eh     change       -0.1663249E-08 Eh
   *** GEOMETRY OPTIMIZATION CONVERGED AFTER 44 ITERATIONS ***

 final structure:
================
26
 xtb: 6.7.0 (08769fc)
P            1.57281318389306       -0.18082049994252       -3.04196881792327
C            3.22930905901684        0.18550663092095       -3.83642929433411
H            3.91514533597148       -0.65410657110213       -3.69537117273833
H            3.05464404305218        0.31678167631878       -4.90775912569627
C            3.83320607969136        1.46312798374965       -3.26374373446570
H            3.99697386963660        1.37249025565267       -2.19216082276377
H            3.16265092674873        2.30343585878122       -3.43069978518247
H            4.78747009478647        1.68288687556564       -3.74049994192401
C            0.82872366997999       -1.24697256882703       -4.34452106331398
C            1.55591548260623       -2.13594722697399       -5.12803737071412
C           -0.54560423954159       -1.15181770020732       -4.53184518975391
C            0.91708640995864       -2.91275892036179       -6.07714645071972
C           -1.18525076260898       -1.93076924396793       -5.47922151539657
C           -0.45310379580994       -2.81331508175734       -6.25466836113359
H            2.62555304531972       -2.22443837257088       -5.00273173207240
H           -1.10961597390749       -0.45607258775152       -3.92596439677287
H            1.49096822116854       -3.60069802737156       -6.68197272803710
H           -2.25392963200948       -1.84786954917748       -5.61539489720813
H           -0.94741051886797       -3.42209738951917       -6.99768561444575
C            2.06245438310635       -1.57791632107115       -1.89890067824029
H            1.12643406380723       -2.02446139278522       -1.54999015547874
H            2.60785145700373       -2.33956121669093       -2.46428752723690
C            2.88057486411956       -1.09858100744015       -0.70852481509398
H            2.35553239413943       -0.30461650981394       -0.18087953047918
H            3.84701536688145       -0.71646253273574       -1.03019208047798
H            3.05430197185793       -1.91802656092157       -0.01255719839708

          :  Hamiltonian                  GFN2-xTB          :
         :: gradient norm              0.000032527472 Eh/a0 ::
         :: HOMO-LUMO gap              3.657854282317 eV    ::
         :: SCC energy               -32.074850570012 Eh    ::
         :: -> dispersion             -0.023351610986 Eh    ::
         :: repulsion energy           0.520172414843 Eh    ::

    * Orbital Energies and Occupations

         #    Occupation            Energy/Eh            Energy/eV
      -------------------------------------------------------------
         1        2.0000           -0.6576811             -17.8964
       ...           ...                  ...                  ...
        18        2.0000           -0.4779128             -13.0047
        19        2.0000           -0.4774006             -12.9907
        20        2.0000           -0.4630612             -12.6005
        21        2.0000           -0.4599701             -12.5164
        22        2.0000           -0.4522974             -12.3076
        23        2.0000           -0.4460011             -12.1363
        24        2.0000           -0.4392721             -11.9532
        25        2.0000           -0.4231119             -11.5135
        26        2.0000           -0.4165991             -11.3362
        27        2.0000           -0.4045291             -11.0078
        28        2.0000           -0.4039678             -10.9925
        29        2.0000           -0.3966980             -10.7947
        30        2.0000           -0.3669444              -9.9851 (HOMO)
        31                         -0.2325208              -6.3272 (LUMO)
        32                         -0.2227909              -6.0624
        33                         -0.1602094              -4.3595
        34                         -0.1501602              -4.0861
        35                         -0.0927910              -2.5250
        36                         -0.0067933              -0.1849
        37                          0.0722920               1.9672
        38                          0.0833897               2.2691
        39                          0.1006653               2.7392
        40                          0.1343050               3.6546
        41                          0.1402061               3.8152
       ...                                ...                  ...
        64                          0.7802332              21.2312
      -------------------------------------------------------------
                  HL-Gap            0.1344237 Eh            3.6579 eV

     #   Z          covCN         q      C6AA      α(0)
     1  15 P        3.036    -0.110   165.203    23.090
     2   6 C        3.747    -0.047    21.486     6.612
     3   1 H        0.925     0.041     2.433     2.439
     4   1 H        0.925     0.040     2.448     2.447
     5   6 C        3.818    -0.098    22.358     6.730
     6   1 H        0.925     0.038     2.471     2.458
     7   1 H        0.925     0.041     2.436     2.441
     8   1 H        0.925     0.031     2.579     2.511
     9   6 C        2.916     0.004    27.935     8.667
    10   6 C        2.963    -0.031    28.760     8.796
    11   6 C        3.013    -0.031    28.748     8.795
    12   6 C        2.919    -0.031    28.769     8.796
    13   6 C        2.918    -0.029    28.736     8.791
    14   6 C        2.920    -0.029    28.733     8.790
    15   1 H        0.926     0.033     2.549     2.496
    16   1 H        0.925     0.039     2.464     2.454
    17   1 H        0.926     0.029     2.604     2.524
    18   1 H        0.926     0.031     2.576     2.510
    19   1 H        0.926     0.030     2.591     2.517
    20   6 C        3.747    -0.045    21.453     6.606
    21   1 H        0.926     0.038     2.474     2.460
    22   1 H        0.925     0.042     2.422     2.434
    23   6 C        3.805    -0.096    22.328     6.727
    24   1 H        0.925     0.041     2.435     2.440
    25   1 H        0.925     0.038     2.476     2.461
    26   1 H        0.925     0.032     2.554     2.499

Wiberg/Mayer (AO) data.
largest (>0.10) Wiberg bond orders for each atom

     #   Z sym  total        # sym  WBO       # sym  WBO       # sym  WBO
 ---------------------------------------------------------------------------
     1  15 P    3.335 --     2 C    1.025    20 C    1.020     9 C    1.007
     2   6 C    3.995 --     1 P    1.025     5 C    1.016     4 H    0.959
                             3 H    0.954
     3   1 H    0.998 --     2 C    0.954
     4   1 H    0.998 --     2 C    0.959
     5   6 C    3.996 --     2 C    1.016     7 H    0.985     8 H    0.985
                             6 H    0.983
     6   1 H    0.999 --     5 C    0.983
     7   1 H    0.998 --     5 C    0.985
     8   1 H    0.999 --     5 C    0.985
     9   6 C    3.983 --    11 C    1.409    10 C    1.399     1 P    1.007
                            14 C    0.108
    10   6 C    3.992 --    12 C    1.449     9 C    1.399    15 H    0.963
                            13 C    0.110
    11   6 C    3.991 --    13 C    1.443     9 C    1.409    16 H    0.965
                            12 C    0.109
    12   6 C    3.993 --    10 C    1.449    14 C    1.433    17 H    0.970
                            11 C    0.109
    13   6 C    3.992 --    11 C    1.443    14 C    1.440    18 H    0.970
                            10 C    0.110
    14   6 C    3.990 --    13 C    1.440    12 C    1.433    19 H    0.971
                             9 C    0.108
    15   1 H    0.999 --    10 C    0.963
    16   1 H    0.998 --    11 C    0.965
    17   1 H    0.999 --    12 C    0.970
    18   1 H    0.999 --    13 C    0.970
    19   1 H    0.998 --    14 C    0.971
    20   6 C    3.995 --     1 P    1.020    23 C    1.017    21 H    0.959
                            22 H    0.952
    21   1 H    0.998 --    20 C    0.959
    22   1 H    0.998 --    20 C    0.952
    23   6 C    3.996 --    20 C    1.017    24 H    0.985    26 H    0.984
                            25 H    0.983
    24   1 H    0.998 --    23 C    0.985
    25   1 H    0.999 --    23 C    0.983
    26   1 H    0.998 --    23 C    0.984
 ---------------------------------------------------------------------------

molecular dipole:
                 x           y           z       tot (Debye)
 q only:        0.219      -0.144       0.027
   full:        0.424      -0.462      -0.128       1.626

 projected vibrational frequencies (cm⁻¹)
eigval :       -0.00    -0.00    -0.00     0.00     0.00     0.00
eigval :       31.42    72.75    79.51    98.28   120.36   177.27
eigval :      204.48   217.67   244.58   265.38   271.83   326.06
eigval :      363.07   441.84   455.66   585.97   655.87   660.32
eigval :      686.24   702.64   734.08   741.07   789.07   875.14
eigval :      899.30   927.05   932.54   969.47   971.37  1010.13
eigval :     1014.65  1018.11  1071.13  1073.66  1083.05  1118.30
eigval :     1120.54  1181.60  1198.52  1222.55  1231.49  1252.16
eigval :     1255.31  1278.11  1315.32  1408.05  1411.11  1423.67
eigval :     1444.40  1451.24  1457.68  1494.77  1497.77  1502.85
eigval :     1507.81  1579.69  1589.41  2925.78  2935.94  2945.76
eigval :     2949.85  3011.86  3012.75  3025.88  3028.44  3033.03
eigval :     3036.44  3063.89  3065.71  3074.01  3078.96  3088.14

   temp. (K)  partition function   enthalpy   heat capacity  entropy
                                   cal/mol     cal/K/mol   cal/K/mol   J/K/mol
 298.15  VIB  0.161E+05             6200.557     39.653     38.217
         ROT  0.124E+07              888.752      2.981     30.865
         INT  0.199E+11             7089.309     42.634     69.082
         TR   0.207E+28             1481.254      4.968     41.214
         TOT                        8570.5628    47.6020   110.2959   461.4779

       T/K    H(0)-H(T)+PV         H(T)/Eh          T*S/Eh         G(T)/Eh
   ------------------------------------------------------------------------
    298.15    0.136581E-01    0.232339E+00    0.524051E-01    0.179934E+00
   ------------------------------------------------------------------------

         :::::::::::::::::::::::::::::::::::::::::::::::::::::
         ::                  THERMODYNAMIC                  ::
         :::::::::::::::::::::::::::::::::::::::::::::::::::::
         :: total free energy         -31.374744280355 Eh   ::
         ::.................................................::
         :: total energy              -31.554678155169 Eh   ::
         :: zero point energy           0.218680934255 Eh   ::
         :: G(RRHO) w/o ZPVE           -0.038747059441 Eh   ::
         :: G(RRHO) contrib.            0.179933874814 Eh   ::
         :::::::::::::::::::::::::::::::::::::::::::::::::::::

           -------------------------------------------------
          | TOTAL ENERGY              -31.554678155169 Eh   |
          | TOTAL ENTHALPY            -31.322339159676 Eh   |
          | TOTAL FREE ENERGY         -31.374744280355 Eh   |
          | GRADIENT NORM               0.000032528395 Eh/α |
          | HOMO-LUMO GAP               3.657854234682 eV   |
           -------------------------------------------------

 * finished run on 2025/07/14 at 11:26:46.170
