   * xtb version 6.7.0 (08769fc) compiled by 'albert@albert-system' on 2024-03-04

   ID    Z sym.   atoms
    1   15 P      1
    2    6 C      2, 5, 9-14, 20, 23
    3    1 H      3, 4, 6-8, 15-19, 21, 22, 24-26

          program call               : /home/minenky/programs/xtb/xtb-dist/bin/xtb m1_00_PEt2Ph-PBE0-D3-TZ-uniMM_53.xyz --charge 0 --T --ohess extreme --cycles 5000 --acc 0.01 --iterations 5000
          :  Hamiltonian                  GFN2-xTB          :
 * total energy  :   -31.5399469 Eh     change       -0.7815970E-13 Eh
 * total energy  :   -31.5490896 Eh     change       -0.9142683E-02 Eh
 * total energy  :   -31.5518470 Eh     change       -0.2757452E-02 Eh
 * total energy  :   -31.5535321 Eh     change       -0.1685107E-02 Eh
 * total energy  :   -31.5542809 Eh     change       -0.7488193E-03 Eh
 * total energy  :   -31.5546842 Eh     change       -0.4032498E-03 Eh
 * total energy  :   -31.5549468 Eh     change       -0.2626322E-03 Eh
 * total energy  :   -31.5551700 Eh     change       -0.2232205E-03 Eh
 * total energy  :   -31.5553672 Eh     change       -0.1972172E-03 Eh
 * total energy  :   -31.5554805 Eh     change       -0.1132457E-03 Eh
 * total energy  :   -31.5561010 Eh     change       -0.4144216E-06 Eh
 * total energy  :   -31.5561014 Eh     change       -0.3935107E-06 Eh
 * total energy  :   -31.5561018 Eh     change       -0.3686172E-06 Eh
 * total energy  :   -31.5561021 Eh     change       -0.3506553E-06 Eh
 * total energy  :   -31.5561025 Eh     change       -0.3270060E-06 Eh
 * total energy  :   -31.5561028 Eh     change       -0.3117042E-06 Eh
 * total energy  :   -31.5561031 Eh     change       -0.2900903E-06 Eh
 * total energy  :   -31.5561033 Eh     change       -0.2769369E-06 Eh
 * total energy  :   -31.5561033 Eh     change       -0.2101121E-08 Eh
   *** GEOMETRY OPTIMIZATION CONVERGED AFTER 185 ITERATIONS ***

 final structure:
================
26
 xtb: 6.7.0 (08769fc)
P            1.63784340038273       -0.24252281287131       -3.01402865476890
C            2.37192260125488       -0.36386996986760       -4.72807661615977
H            3.40799878093335       -0.01409877057474       -4.71735448526385
H            2.37817829510257       -1.42763648796776       -4.98378151059574
C            1.55268907439128        0.40787113190477       -5.75342259421168
H            1.57142128690149        1.47490117039475       -5.54208802253134
H            0.51662838864516        0.07536391662884       -5.73871255304080
H            1.95051054598458        0.25101287980253       -6.75483591863798
C            2.94708289172736       -1.19081110910125       -2.13213907987748
C            4.29137424360194       -0.83747374547347       -2.10741526891359
C            2.54142923898816       -2.33976809872424       -1.46218156898311
C            5.20666728732418       -1.61909973558762       -1.42679690147321
C            3.45694833975422       -3.12444284989820       -0.78422818616764
C            4.79321629220820       -2.76383169743357       -0.76524436906592
H            4.63383967586010        0.05236498523224       -2.61617664233281
H            1.49499924762153       -2.61195011165296       -1.47814942667138
H            6.24935819606578       -1.33430091656995       -1.41204550115294
H            3.12887182246384       -4.01577012198827       -0.26906831566723
H            5.51242880319897       -3.37148328020960       -0.23556582701044
C            2.15594022997010        1.50242809492501       -2.59887714498535
H            3.16682498902765        1.70399763372540       -2.96331870945270
H            1.46824240896229        2.16616772675295       -3.13084636256267
C            2.05830127267371        1.76121793023351       -1.10180681665632
H            2.74718651785134        1.11843372967447       -0.55599388353666
H            1.05019487699659        1.55560415822227       -0.74685692578372
H            2.29932429210742        2.79855635042345       -0.87463771449702

          :  Hamiltonian                  GFN2-xTB          :
         :: gradient norm              0.000037371702 Eh/a0 ::
         :: HOMO-LUMO gap              3.642108398502 eV    ::
         :: SCC energy               -32.076716048074 Eh    ::
         :: -> dispersion             -0.023677971205 Eh    ::
         :: repulsion energy           0.520612700439 Eh    ::

    * Orbital Energies and Occupations

         #    Occupation            Energy/Eh            Energy/eV
      -------------------------------------------------------------
         1        2.0000           -0.6578878             -17.9020
       ...           ...                  ...                  ...
        18        2.0000           -0.4773442             -12.9892
        19        2.0000           -0.4745172             -12.9123
        20        2.0000           -0.4630419             -12.6000
        21        2.0000           -0.4621127             -12.5747
        22        2.0000           -0.4534391             -12.3387
        23        2.0000           -0.4450712             -12.1110
        24        2.0000           -0.4376530             -11.9091
        25        2.0000           -0.4231165             -11.5136
        26        2.0000           -0.4184192             -11.3858
        27        2.0000           -0.4046928             -11.0123
        28        2.0000           -0.4043158             -11.0020
        29        2.0000           -0.3967799             -10.7969
        30        2.0000           -0.3669596              -9.9855 (HOMO)
        31                         -0.2331146              -6.3434 (LUMO)
        32                         -0.2229205              -6.0660
        33                         -0.1564270              -4.2566
        34                         -0.1499283              -4.0798
        35                         -0.0930462              -2.5319
        36                          0.0052794               0.1437
        37                          0.0555630               1.5119
        38                          0.0884286               2.4063
        39                          0.0952297               2.5913
        40                          0.1354014               3.6845
        41                          0.1378622               3.7514
       ...                                ...                  ...
        64                          0.7863626              21.3980
      -------------------------------------------------------------
                  HL-Gap            0.1338450 Eh            3.6421 eV

     #   Z          covCN         q      C6AA      α(0)
     1  15 P        3.045    -0.116   165.503    23.111
     2   6 C        3.748    -0.046    21.470     6.609
     3   1 H        0.925     0.043     2.413     2.429
     4   1 H        0.926     0.038     2.469     2.457
     5   6 C        3.811    -0.098    22.357     6.730
     6   1 H        0.925     0.037     2.492     2.469
     7   1 H        0.925     0.042     2.423     2.434
     8   1 H        0.925     0.034     2.537     2.491
     9   6 C        2.916     0.008    27.844     8.653
    10   6 C        2.960    -0.029    28.711     8.789
    11   6 C        3.017    -0.030    28.737     8.793
    12   6 C        2.919    -0.031    28.782     8.798
    13   6 C        2.918    -0.030    28.740     8.791
    14   6 C        2.920    -0.029    28.732     8.790
    15   1 H        0.926     0.032     2.553     2.499
    16   1 H        0.925     0.039     2.455     2.450
    17   1 H        0.926     0.028     2.612     2.528
    18   1 H        0.926     0.030     2.581     2.512
    19   1 H        0.926     0.029     2.597     2.520
    20   6 C        3.748    -0.045    21.444     6.605
    21   1 H        0.925     0.042     2.428     2.437
    22   1 H        0.926     0.039     2.463     2.454
    23   6 C        3.819    -0.096    22.315     6.723
    24   1 H        0.925     0.036     2.506     2.476
    25   1 H        0.925     0.041     2.436     2.441
    26   1 H        0.925     0.032     2.556     2.500

Wiberg/Mayer (AO) data.
largest (>0.10) Wiberg bond orders for each atom

     #   Z sym  total        # sym  WBO       # sym  WBO       # sym  WBO
 ---------------------------------------------------------------------------
     1  15 P    3.346 --    20 C    1.028     2 C    1.021     9 C    1.006
     2   6 C    3.995 --     1 P    1.021     5 C    1.016     4 H    0.959
                             3 H    0.951
     3   1 H    0.998 --     2 C    0.951
     4   1 H    0.998 --     2 C    0.959
     5   6 C    3.996 --     2 C    1.016     6 H    0.985     7 H    0.985
                             8 H    0.984
     6   1 H    0.999 --     5 C    0.985
     7   1 H    0.998 --     5 C    0.985
     8   1 H    0.998 --     5 C    0.984
     9   6 C    3.983 --    11 C    1.408    10 C    1.400     1 P    1.006
                            14 C    0.108
    10   6 C    3.992 --    12 C    1.449     9 C    1.400    15 H    0.961
                            13 C    0.110
    11   6 C    3.991 --    13 C    1.443     9 C    1.408    16 H    0.964
                            12 C    0.108
    12   6 C    3.993 --    10 C    1.449    14 C    1.433    17 H    0.970
                            11 C    0.108
    13   6 C    3.992 --    11 C    1.443    14 C    1.440    18 H    0.970
                            10 C    0.110
    14   6 C    3.989 --    13 C    1.440    12 C    1.433    19 H    0.971
                             9 C    0.108
    15   1 H    0.999 --    10 C    0.961
    16   1 H    0.998 --    11 C    0.964
    17   1 H    0.999 --    12 C    0.970
    18   1 H    0.999 --    13 C    0.970
    19   1 H    0.998 --    14 C    0.971
    20   6 C    3.994 --     1 P    1.028    23 C    1.016    22 H    0.957
                            21 H    0.950
    21   1 H    0.998 --    20 C    0.950
    22   1 H    0.998 --    20 C    0.957
    23   6 C    3.997 --    20 C    1.016    26 H    0.985    25 H    0.984
                            24 H    0.984
    24   1 H    0.999 --    23 C    0.984
    25   1 H    0.998 --    23 C    0.984
    26   1 H    0.999 --    23 C    0.985
 ---------------------------------------------------------------------------

molecular dipole:
                 x           y           z       tot (Debye)
 q only:        0.186       0.147      -0.102
   full:        0.581       0.236      -0.151       1.640

 projected vibrational frequencies (cm⁻¹)
eigval :       -0.00    -0.00    -0.00     0.00     0.00     0.00
eigval :       23.64    54.97    72.15    94.07   144.50   168.14
eigval :      203.12   215.89   224.28   265.42   315.04   328.58
eigval :      363.10   425.27   450.88   586.09   655.63   660.15
eigval :      685.74   702.13   739.21   754.47   778.08   874.77
eigval :      898.86   926.61   932.71   968.74   974.88   997.88
eigval :     1013.22  1016.96  1071.46  1076.75  1083.10  1117.57
eigval :     1121.41  1181.65  1199.16  1220.29  1225.45  1250.43
eigval :     1255.63  1278.06  1315.62  1409.37  1411.38  1423.38
eigval :     1446.49  1451.44  1459.26  1497.29  1498.50  1501.86
eigval :     1502.27  1579.86  1589.67  2928.68  2933.98  2946.53
eigval :     2949.70  3013.13  3014.12  3020.28  3026.91  3029.68
eigval :     3033.86  3063.44  3064.01  3072.22  3077.53  3087.85

   temp. (K)  partition function   enthalpy   heat capacity  entropy
                                   cal/mol     cal/K/mol   cal/K/mol   J/K/mol
 298.15  VIB  0.271E+05             6227.183     39.301     38.548
         ROT  0.122E+07              888.752      2.981     30.825
         INT  0.329E+11             7115.935     42.282     69.373
         TR   0.207E+28             1481.254      4.968     41.214
         TOT                        8597.1890    47.2497   110.5866   462.6942

       T/K    H(0)-H(T)+PV         H(T)/Eh          T*S/Eh         G(T)/Eh
   ------------------------------------------------------------------------
    298.15    0.137005E-01    0.232278E+00    0.525432E-01    0.179735E+00
   ------------------------------------------------------------------------

         :::::::::::::::::::::::::::::::::::::::::::::::::::::
         ::                  THERMODYNAMIC                  ::
         :::::::::::::::::::::::::::::::::::::::::::::::::::::
         :: total free energy         -31.376368537420 Eh   ::
         ::.................................................::
         :: total energy              -31.556103347636 Eh   ::
         :: zero point energy           0.218577562635 Eh   ::
         :: G(RRHO) w/o ZPVE           -0.038842752419 Eh   ::
         :: G(RRHO) contrib.            0.179734810216 Eh   ::
         :::::::::::::::::::::::::::::::::::::::::::::::::::::

           -------------------------------------------------
          | TOTAL ENERGY              -31.556103347636 Eh   |
          | TOTAL ENTHALPY            -31.323825292285 Eh   |
          | TOTAL FREE ENERGY         -31.376368537420 Eh   |
          | GRADIENT NORM               0.000037371596 Eh/α |
          | HOMO-LUMO GAP               3.642108366829 eV   |
           -------------------------------------------------

 * finished run on 2025/07/14 at 11:34:58.103
