   * xtb version 6.7.0 (08769fc) compiled by 'albert@albert-system' on 2024-03-04

   ID    Z sym.   atoms
    1   15 P      1
    2    6 C      2, 5, 9-14, 20, 23
    3    1 H      3, 4, 6-8, 15-19, 21, 22, 24-26

          program call               : /home/minenky/programs/xtb/xtb-dist/bin/xtb m1_00_PEt2Ph-PBE0-D3-TZ-uniMM_39.xyz --charge 0 --T --ohess extreme --cycles 5000 --acc 0.01 --iterations 5000
          :  Hamiltonian                  GFN2-xTB          :
 * total energy  :   -31.5433568 Eh     change       -0.6394885E-13 Eh
 * total energy  :   -31.5495948 Eh     change       -0.6237963E-02 Eh
 * total energy  :   -31.5511645 Eh     change       -0.1569758E-02 Eh
 * total energy  :   -31.5521117 Eh     change       -0.9472044E-03 Eh
 * total energy  :   -31.5525703 Eh     change       -0.4585328E-03 Eh
 * total energy  :   -31.5529734 Eh     change       -0.4031034E-03 Eh
 * total energy  :   -31.5533222 Eh     change       -0.3488675E-03 Eh
 * total energy  :   -31.5536612 Eh     change       -0.3390030E-03 Eh
 * total energy  :   -31.5540839 Eh     change       -0.4226377E-03 Eh
 * total energy  :   -31.5545957 Eh     change       -0.5117875E-03 Eh
 * total energy  :   -31.5570182 Eh     change       -0.1267137E-05 Eh
 * total energy  :   -31.5570187 Eh     change       -0.5302720E-06 Eh
 * total energy  :   -31.5570190 Eh     change       -0.2512362E-06 Eh
 * total energy  :   -31.5570192 Eh     change       -0.2177561E-06 Eh
 * total energy  :   -31.5570194 Eh     change       -0.2350602E-06 Eh
 * total energy  :   -31.5570196 Eh     change       -0.1929490E-06 Eh
 * total energy  :   -31.5570197 Eh     change       -0.1232487E-06 Eh
 * total energy  :   -31.5570198 Eh     change       -0.1059550E-06 Eh
 * total energy  :   -31.5570198 Eh     change       -0.1796455E-08 Eh
   *** GEOMETRY OPTIMIZATION CONVERGED AFTER 44 ITERATIONS ***

 final structure:
================
26
 xtb: 6.7.0 (08769fc)
P            1.58034671290650       -0.43824260782487       -2.94667678518601
C            0.48907724834436        1.01070977871516       -2.50719327914780
H            0.22237022452959        1.49892782207704       -3.44919584851137
H           -0.43350728172796        0.66707356576799       -2.03225635993208
C            1.22340866503577        1.99030545864122       -1.60237797136706
H            2.14217017354736        2.33003126884425       -2.07651948546994
H            1.48472519242521        1.51397797452931       -0.65857727737018
H            0.60217161092120        2.85911628161990       -1.39086481810956
C            1.71214662118566       -1.23410845893193       -1.29101041805274
C            0.62987498232184       -1.49195246759139       -0.45770312409477
C            2.98729787265771       -1.59341071103940       -0.86880967622839
C            0.82277811263299       -2.09578634533439        0.77102548381748
C            3.18129197962318       -2.19868356462706        0.35992810480878
C            2.09712968272567       -2.45057077884767        1.18284348721540
H           -0.37218231738537       -1.22283083530106       -0.76102977143366
H            3.82854358527115       -1.39201077275603       -1.51774388521443
H           -0.02533972220811       -2.29131033850984        1.41214182752884
H            4.17716267028128       -2.47360024940280        0.67644633720621
H            2.24258839659723       -2.92222613297267        2.14383072410286
C            0.26406070257899       -1.52968098462017       -3.69508673575114
H           -0.61110739853998       -1.57409465866730       -3.04152504384594
H           -0.03780096219856       -1.06104914373766       -4.63630293963077
C            0.80425761125071       -2.92847350046205       -3.95796340307649
H            1.10112433162548       -3.40301175023867       -3.02379742642025
H            1.67611060227138       -2.88341185075075       -4.60769839501416
H            0.04869670332678       -3.54957999857904       -4.43635332082297

          :  Hamiltonian                  GFN2-xTB          :
         :: gradient norm              0.000025647780 Eh/a0 ::
         :: HOMO-LUMO gap              3.636952934905 eV    ::
         :: SCC energy               -32.077694238927 Eh    ::
         :: -> dispersion             -0.024029293693 Eh    ::
         :: repulsion energy           0.520674393185 Eh    ::

    * Orbital Energies and Occupations

         #    Occupation            Energy/Eh            Energy/eV
      -------------------------------------------------------------
         1        2.0000           -0.6581222             -17.9084
       ...           ...                  ...                  ...
        18        2.0000           -0.4773472             -12.9893
        19        2.0000           -0.4746513             -12.9159
        20        2.0000           -0.4704124             -12.8006
        21        2.0000           -0.4563754             -12.4186
        22        2.0000           -0.4561381             -12.4121
        23        2.0000           -0.4422992             -12.0356
        24        2.0000           -0.4365034             -11.8779
        25        2.0000           -0.4232509             -11.5172
        26        2.0000           -0.4194677             -11.4143
        27        2.0000           -0.4052761             -11.0281
        28        2.0000           -0.4045188             -11.0075
        29        2.0000           -0.3969961             -10.8028
        30        2.0000           -0.3672879              -9.9944 (HOMO)
        31                         -0.2336323              -6.3575 (LUMO)
        32                         -0.2230293              -6.0689
        33                         -0.1548805              -4.2145
        34                         -0.1507463              -4.1020
        35                         -0.0928013              -2.5253
        36                          0.0045205               0.1230
        37                          0.0549567               1.4954
        38                          0.0924180               2.5148
        39                          0.1108436               3.0162
        40                          0.1351791               3.6784
        41                          0.1374981               3.7415
       ...                                ...                  ...
        64                          0.7794735              21.2106
      -------------------------------------------------------------
                  HL-Gap            0.1336556 Eh            3.6370 eV

     #   Z          covCN         q      C6AA      α(0)
     1  15 P        3.056    -0.118   165.594    23.117
     2   6 C        3.748    -0.047    21.474     6.610
     3   1 H        0.926     0.038     2.469     2.457
     4   1 H        0.925     0.042     2.421     2.433
     5   6 C        3.821    -0.096    22.315     6.723
     6   1 H        0.925     0.042     2.429     2.437
     7   1 H        0.925     0.036     2.501     2.473
     8   1 H        0.925     0.033     2.546     2.495
     9   6 C        2.916     0.011    27.768     8.641
    10   6 C        2.961    -0.027    28.681     8.784
    11   6 C        3.016    -0.030    28.728     8.792
    12   6 C        2.919    -0.031    28.784     8.798
    13   6 C        2.918    -0.030    28.749     8.792
    14   6 C        2.920    -0.029    28.734     8.790
    15   1 H        0.926     0.032     2.563     2.504
    16   1 H        0.925     0.040     2.451     2.448
    17   1 H        0.926     0.028     2.619     2.531
    18   1 H        0.926     0.030     2.588     2.516
    19   1 H        0.926     0.029     2.603     2.523
    20   6 C        3.748    -0.047    21.475     6.610
    21   1 H        0.925     0.042     2.417     2.431
    22   1 H        0.926     0.039     2.468     2.457
    23   6 C        3.821    -0.096    22.318     6.723
    24   1 H        0.925     0.036     2.501     2.473
    25   1 H        0.925     0.042     2.427     2.436
    26   1 H        0.925     0.033     2.546     2.495

Wiberg/Mayer (AO) data.
largest (>0.10) Wiberg bond orders for each atom

     #   Z sym  total        # sym  WBO       # sym  WBO       # sym  WBO
 ---------------------------------------------------------------------------
     1  15 P    3.349 --     2 C    1.025    20 C    1.024     9 C    1.007
     2   6 C    3.993 --     1 P    1.025     5 C    1.017     3 H    0.958
                             4 H    0.950
     3   1 H    0.998 --     2 C    0.958
     4   1 H    0.998 --     2 C    0.950
     5   6 C    3.995 --     2 C    1.017     8 H    0.985     6 H    0.984
                             7 H    0.984
     6   1 H    0.998 --     5 C    0.984
     7   1 H    0.999 --     5 C    0.984
     8   1 H    0.999 --     5 C    0.985
     9   6 C    3.983 --    11 C    1.408    10 C    1.400     1 P    1.007
                            14 C    0.108
    10   6 C    3.993 --    12 C    1.450     9 C    1.400    15 H    0.961
                            13 C    0.111
    11   6 C    3.992 --    13 C    1.443     9 C    1.408    16 H    0.964
                            12 C    0.108
    12   6 C    3.993 --    10 C    1.450    14 C    1.432    17 H    0.970
                            11 C    0.108
    13   6 C    3.992 --    11 C    1.443    14 C    1.441    18 H    0.970
                            10 C    0.111
    14   6 C    3.989 --    13 C    1.441    12 C    1.432    19 H    0.971
                             9 C    0.108
    15   1 H    0.999 --    10 C    0.961
    16   1 H    0.998 --    11 C    0.964
    17   1 H    0.999 --    12 C    0.970
    18   1 H    0.999 --    13 C    0.970
    19   1 H    0.999 --    14 C    0.971
    20   6 C    3.996 --     1 P    1.024    23 C    1.017    22 H    0.958
                            21 H    0.951
    21   1 H    0.998 --    20 C    0.951
    22   1 H    0.998 --    20 C    0.958
    23   6 C    3.995 --    20 C    1.017    25 H    0.985    26 H    0.984
                            24 H    0.984
    24   1 H    0.999 --    23 C    0.984
    25   1 H    0.998 --    23 C    0.985
    26   1 H    0.999 --    23 C    0.984
 ---------------------------------------------------------------------------

molecular dipole:
                 x           y           z       tot (Debye)
 q only:       -0.229      -0.013       0.064
   full:       -0.566      -0.089       0.290       1.633

 projected vibrational frequencies (cm⁻¹)
eigval :       -0.00    -0.00     0.00     0.00     0.00     0.00
eigval :       18.22    50.25    65.07   121.05   122.37   164.27
eigval :      199.46   213.97   232.48   295.17   317.42   321.39
eigval :      363.62   401.35   450.40   586.12   657.51   668.68
eigval :      687.42   704.78   735.18   753.42   780.18   875.05
eigval :      899.18   926.88   932.99   969.38   975.71   998.42
eigval :     1003.62  1020.05  1062.80  1082.82  1085.10  1116.94
eigval :     1121.48  1181.70  1198.85  1217.02  1229.73  1244.57
eigval :     1255.28  1278.92  1315.81  1410.34  1411.01  1423.60
eigval :     1442.53  1449.93  1458.04  1497.22  1497.34  1501.64
eigval :     1501.84  1579.98  1589.61  2931.52  2936.87  2944.75
eigval :     2951.25  3013.98  3014.44  3019.42  3019.56  3029.43
eigval :     3030.53  3061.37  3063.65  3070.73  3076.93  3087.72

   temp. (K)  partition function   enthalpy   heat capacity  entropy
                                   cal/mol     cal/K/mol   cal/K/mol   J/K/mol
 298.15  VIB  0.374E+05             6235.068     39.143     38.689
         ROT  0.118E+07              888.752      2.981     30.763
         INT  0.441E+11             7123.821     42.124     69.451
         TR   0.207E+28             1481.254      4.968     41.214
         TOT                        8605.0747    47.0922   110.6650   463.0224

       T/K    H(0)-H(T)+PV         H(T)/Eh          T*S/Eh         G(T)/Eh
   ------------------------------------------------------------------------
    298.15    0.137131E-01    0.232229E+00    0.525805E-01    0.179648E+00
   ------------------------------------------------------------------------

         :::::::::::::::::::::::::::::::::::::::::::::::::::::
         ::                  THERMODYNAMIC                  ::
         :::::::::::::::::::::::::::::::::::::::::::::::::::::
         :: total free energy         -31.377371614631 Eh   ::
         ::.................................................::
         :: total energy              -31.557019845742 Eh   ::
         :: zero point energy           0.218515683767 Eh   ::
         :: G(RRHO) w/o ZPVE           -0.038867452656 Eh   ::
         :: G(RRHO) contrib.            0.179648231111 Eh   ::
         :::::::::::::::::::::::::::::::::::::::::::::::::::::

           -------------------------------------------------
          | TOTAL ENERGY              -31.557019845742 Eh   |
          | TOTAL ENTHALPY            -31.324791102490 Eh   |
          | TOTAL FREE ENERGY         -31.377371614631 Eh   |
          | GRADIENT NORM               0.000025648063 Eh/α |
          | HOMO-LUMO GAP               3.636952935754 eV   |
           -------------------------------------------------

 * finished run on 2025/07/14 at 11:31:45.815
