   * xtb version 6.7.0 (08769fc) compiled by 'albert@albert-system' on 2024-03-04

   ID    Z sym.   atoms
    1   15 P      1
    2    6 C      2, 5, 9-14, 20, 23
    3    1 H      3, 4, 6-8, 15-19, 21, 22, 24-26

          program call               : /home/minenky/programs/xtb/xtb-dist/bin/xtb m1_00_PEt2Ph-PBE0-D3-TZ-uniMM_43.xyz --charge 0 --T --ohess extreme --cycles 5000 --acc 0.01 --iterations 5000
          :  Hamiltonian                  GFN2-xTB          :
 * total energy  :   -31.5389070 Eh     change        0.2131628E-13 Eh
 * total energy  :   -31.5462196 Eh     change       -0.7312612E-02 Eh
 * total energy  :   -31.5479537 Eh     change       -0.1734053E-02 Eh
 * total energy  :   -31.5488902 Eh     change       -0.9365261E-03 Eh
 * total energy  :   -31.5494030 Eh     change       -0.5127841E-03 Eh
 * total energy  :   -31.5498830 Eh     change       -0.4799387E-03 Eh
 * total energy  :   -31.5503514 Eh     change       -0.4684824E-03 Eh
 * total energy  :   -31.5508174 Eh     change       -0.4660068E-03 Eh
 * total energy  :   -31.5513076 Eh     change       -0.4901611E-03 Eh
 * total energy  :   -31.5518527 Eh     change       -0.5451417E-03 Eh
 * total energy  :   -31.5560445 Eh     change       -0.6566876E-06 Eh
 * total energy  :   -31.5560445 Eh     change        0.1850131E-07 Eh
 * total energy  :   -31.5560451 Eh     change       -0.5995486E-06 Eh
 * total energy  :   -31.5560457 Eh     change       -0.6309790E-06 Eh
 * total energy  :   -31.5560462 Eh     change       -0.4830384E-06 Eh
 * total energy  :   -31.5560467 Eh     change       -0.5058045E-06 Eh
 * total energy  :   -31.5560472 Eh     change       -0.4310036E-06 Eh
 * total energy  :   -31.5560473 Eh     change       -0.1951191E-06 Eh
 * total energy  :   -31.5560474 Eh     change       -0.4383384E-08 Eh
   *** GEOMETRY OPTIMIZATION CONVERGED AFTER 44 ITERATIONS ***

 final structure:
================
26
 xtb: 6.7.0 (08769fc)
P            1.76837636820026       -0.23119635697037       -2.83220542483346
C            1.76771977951707        1.41231285145312       -3.72114802953416
H            1.10567919778770        2.12258189085898       -3.21952677005430
H            2.78919986064307        1.79987646730703       -3.67069624592349
C            1.35072382327965        1.24414674143750       -5.17682027934457
H            0.33076399487909        0.87138708123101       -5.24669279265115
H            2.00602115130246        0.53590146578645       -5.67962964178411
H            1.40340072638666        2.19624818346877       -5.70250749790117
C            2.46139826717173        0.29865525401226       -1.21048212779732
C            2.09916498910202        1.46466728580098       -0.54594607448368
C            3.39524965876973       -0.54795018703941       -0.62307742435581
C            2.66142197232483        1.77362571610260        0.67901601600841
C            3.95555467292816       -0.24139387844972        0.60395138942944
C            3.58891599281180        0.92253815194304        1.25731116450570
H            1.37508100773305        2.13981716755779       -0.97898570427344
H            3.67727051573515       -1.45443818629281       -1.14090149329941
H            2.37361958084162        2.68322616179853        1.18720306662344
H            4.67824840279276       -0.90902100651175        1.05060537557352
H            4.02399414599226        1.16784673071052        2.21522460942856
C           -0.03333775725664       -0.28744906295111       -2.34374499010193
H           -0.32436480293645        0.66088312775756       -1.88302996627826
H           -0.61399165678263       -0.41718799570207       -3.26112483968544
C           -0.30119249690872       -1.44586410153208       -1.39333985661541
H            0.26814236963286       -1.32236698921237       -0.47322682481798
H           -0.00724674204362       -2.38863599158928       -1.85061727447205
H           -1.35892702190378       -1.49954152097299       -1.14050836336235

          :  Hamiltonian                  GFN2-xTB          :
         :: gradient norm              0.000040974207 Eh/a0 ::
         :: HOMO-LUMO gap              3.648924837725 eV    ::
         :: SCC energy               -32.076655708361 Eh    ::
         :: -> dispersion             -0.023590088380 Eh    ::
         :: repulsion energy           0.520608354048 Eh    ::

    * Orbital Energies and Occupations

         #    Occupation            Energy/Eh            Energy/eV
      -------------------------------------------------------------
         1        2.0000           -0.6578946             -17.9022
       ...           ...                  ...                  ...
        18        2.0000           -0.4774683             -12.9926
        19        2.0000           -0.4746436             -12.9157
        20        2.0000           -0.4628147             -12.5938
        21        2.0000           -0.4620326             -12.5725
        22        2.0000           -0.4530390             -12.3278
        23        2.0000           -0.4444937             -12.0953
        24        2.0000           -0.4376874             -11.9101
        25        2.0000           -0.4232802             -11.5180
        26        2.0000           -0.4184577             -11.3868
        27        2.0000           -0.4044847             -11.0066
        28        2.0000           -0.4042206             -10.9994
        29        2.0000           -0.3968339             -10.7984
        30        2.0000           -0.3672746              -9.9941 (HOMO)
        31                         -0.2331791              -6.3451 (LUMO)
        32                         -0.2229563              -6.0669
        33                         -0.1562900              -4.2529
        34                         -0.1504379              -4.0936
        35                         -0.0928792              -2.5274
        36                         -0.0001455              -0.0040
        37                          0.0573847               1.5615
        38                          0.0897580               2.4424
        39                          0.1038743               2.8266
        40                          0.1350207               3.6741
        41                          0.1362550               3.7077
       ...                                ...                  ...
        64                          0.7819550              21.2781
      -------------------------------------------------------------
                  HL-Gap            0.1340955 Eh            3.6489 eV

     #   Z          covCN         q      C6AA      α(0)
     1  15 P        3.054    -0.115   165.433    23.106
     2   6 C        3.748    -0.047    21.485     6.611
     3   1 H        0.925     0.042     2.426     2.436
     4   1 H        0.926     0.039     2.460     2.453
     5   6 C        3.819    -0.098    22.350     6.728
     6   1 H        0.925     0.036     2.498     2.472
     7   1 H        0.925     0.042     2.421     2.433
     8   1 H        0.925     0.033     2.545     2.495
     9   6 C        2.916     0.008    27.848     8.654
    10   6 C        2.960    -0.029    28.712     8.789
    11   6 C        3.017    -0.030    28.732     8.793
    12   6 C        2.919    -0.031    28.771     8.796
    13   6 C        2.918    -0.030    28.745     8.792
    14   6 C        2.920    -0.029    28.731     8.790
    15   1 H        0.926     0.031     2.569     2.507
    16   1 H        0.925     0.040     2.453     2.449
    17   1 H        0.926     0.028     2.610     2.526
    18   1 H        0.926     0.030     2.582     2.513
    19   1 H        0.926     0.029     2.596     2.520
    20   6 C        3.748    -0.045    21.449     6.606
    21   1 H        0.925     0.042     2.416     2.431
    22   1 H        0.925     0.039     2.458     2.452
    23   6 C        3.821    -0.097    22.323     6.724
    24   1 H        0.925     0.035     2.510     2.478
    25   1 H        0.925     0.042     2.427     2.436
    26   1 H        0.925     0.032     2.553     2.499

Wiberg/Mayer (AO) data.
largest (>0.10) Wiberg bond orders for each atom

     #   Z sym  total        # sym  WBO       # sym  WBO       # sym  WBO
 ---------------------------------------------------------------------------
     1  15 P    3.343 --     2 C    1.025    20 C    1.023     9 C    1.006
     2   6 C    3.994 --     1 P    1.025     5 C    1.016     4 H    0.960
                             3 H    0.951
     3   1 H    0.998 --     2 C    0.951
     4   1 H    0.998 --     2 C    0.960
     5   6 C    3.995 --     2 C    1.016     7 H    0.985     6 H    0.985
                             8 H    0.984
     6   1 H    0.999 --     5 C    0.985
     7   1 H    0.998 --     5 C    0.985
     8   1 H    0.998 --     5 C    0.984
     9   6 C    3.983 --    11 C    1.408    10 C    1.400     1 P    1.006
                            14 C    0.108
    10   6 C    3.993 --    12 C    1.449     9 C    1.400    15 H    0.962
                            13 C    0.111
    11   6 C    3.991 --    13 C    1.443     9 C    1.408    16 H    0.964
                            12 C    0.108
    12   6 C    3.993 --    10 C    1.449    14 C    1.433    17 H    0.970
                            11 C    0.108
    13   6 C    3.992 --    11 C    1.443    14 C    1.440    18 H    0.970
                            10 C    0.111
    14   6 C    3.990 --    13 C    1.440    12 C    1.433    19 H    0.971
                             9 C    0.108
    15   1 H    0.999 --    10 C    0.962
    16   1 H    0.998 --    11 C    0.964
    17   1 H    0.999 --    12 C    0.970
    18   1 H    0.999 --    13 C    0.970
    19   1 H    0.998 --    14 C    0.971
    20   6 C    3.996 --     1 P    1.023    23 C    1.017    22 H    0.958
                            21 H    0.951
    21   1 H    0.998 --    20 C    0.951
    22   1 H    0.998 --    20 C    0.958
    23   6 C    3.997 --    20 C    1.017    25 H    0.985    26 H    0.984
                            24 H    0.984
    24   1 H    0.999 --    23 C    0.984
    25   1 H    0.998 --    23 C    0.985
    26   1 H    0.999 --    23 C    0.984
 ---------------------------------------------------------------------------

molecular dipole:
                 x           y           z       tot (Debye)
 q only:       -0.180       0.165       0.031
   full:       -0.334       0.492       0.230       1.619

 projected vibrational frequencies (cm⁻¹)
eigval :       -0.00    -0.00    -0.00    -0.00     0.00     0.00
eigval :      -11.90    47.85    69.78    96.48   134.88   158.80
eigval :      199.71   214.08   228.16   266.85   298.62   331.61
eigval :      362.55   428.99   450.08   586.03   656.15   661.67
eigval :      687.27   699.22   736.97   758.52   777.11   873.98
eigval :      898.38   926.29   932.68   968.98   976.29   994.29
eigval :     1012.78  1017.93  1071.51  1076.78  1083.27  1117.17
eigval :     1121.10  1181.62  1197.94  1223.31  1228.47  1250.89
eigval :     1253.38  1279.67  1315.37  1409.95  1410.50  1423.38
eigval :     1439.66  1447.23  1457.19  1497.22  1498.77  1501.19
eigval :     1502.31  1579.78  1589.55  2929.37  2937.94  2948.59
eigval :     2951.13  3013.63  3014.45  3019.34  3025.67  3029.88
eigval :     3033.38  3063.47  3064.73  3072.89  3077.94  3087.95

   temp. (K)  partition function   enthalpy   heat capacity  entropy
                                   cal/mol     cal/K/mol   cal/K/mol   J/K/mol
 298.15  VIB  0.663E+05             6282.906     39.145     39.484
         ROT  0.122E+07              888.752      2.981     30.835
         INT  0.810E+11             7171.658     42.126     70.319
         TR   0.207E+28             1481.254      4.968     41.214
         TOT                        8652.9124    47.0940   111.5327   466.6528

       T/K    H(0)-H(T)+PV         H(T)/Eh          T*S/Eh         G(T)/Eh
   ------------------------------------------------------------------------
    298.15    0.137893E-01    0.232248E+00    0.529928E-01    0.179256E+00
   ------------------------------------------------------------------------

         :::::::::::::::::::::::::::::::::::::::::::::::::::::
         ::                  THERMODYNAMIC                  ::
         :::::::::::::::::::::::::::::::::::::::::::::::::::::
         :: total free energy         -31.376791669359 Eh   ::
         ::.................................................::
         :: total energy              -31.556047354312 Eh   ::
         :: zero point energy           0.218459179018 Eh   ::
         :: G(RRHO) w/o ZPVE           -0.039203494064 Eh   ::
         :: G(RRHO) contrib.            0.179255684954 Eh   ::
         :::::::::::::::::::::::::::::::::::::::::::::::::::::

           -------------------------------------------------
          | TOTAL ENERGY              -31.556047354312 Eh   |
          | TOTAL ENTHALPY            -31.323798881703 Eh   |
          | TOTAL FREE ENERGY         -31.376791669359 Eh   |
          | GRADIENT NORM               0.000040975654 Eh/α |
          | HOMO-LUMO GAP               3.648924808214 eV   |
           -------------------------------------------------

 * finished run on 2025/07/14 at 11:32:59.743
