   * xtb version 6.7.0 (08769fc) compiled by 'albert@albert-system' on 2024-03-04

   ID    Z sym.   atoms
    1   15 P      1
    2    6 C      2, 5, 9-14, 20, 23
    3    1 H      3, 4, 6-8, 15-19, 21, 22, 24-26

          program call               : /home/minenky/programs/xtb/xtb-dist/bin/xtb m1_00_PEt2Ph-PBE0-D3-TZ-uniMM_5.xyz --charge 0 --T --ohess extreme --cycles 5000 --acc 0.01 --iterations 5000
          :  Hamiltonian                  GFN2-xTB          :
 * total energy  :   -31.5495961 Eh     change        0.4973799E-13 Eh
 * total energy  :   -31.5524344 Eh     change       -0.2838267E-02 Eh
 * total energy  :   -31.5528806 Eh     change       -0.4461904E-03 Eh
 * total energy  :   -31.5529758 Eh     change       -0.9516018E-04 Eh
 * total energy  :   -31.5530071 Eh     change       -0.3131824E-04 Eh
 * total energy  :   -31.5530385 Eh     change       -0.3142659E-04 Eh
 * total energy  :   -31.5530937 Eh     change       -0.5517049E-04 Eh
 * total energy  :   -31.5531635 Eh     change       -0.6983535E-04 Eh
 * total energy  :   -31.5532614 Eh     change       -0.9789837E-04 Eh
 * total energy  :   -31.5533662 Eh     change       -0.1048051E-03 Eh
 * total energy  :   -31.5570184 Eh     change       -0.9269843E-06 Eh
 * total energy  :   -31.5570193 Eh     change       -0.8782610E-06 Eh
 * total energy  :   -31.5570201 Eh     change       -0.7862920E-06 Eh
 * total energy  :   -31.5570207 Eh     change       -0.5915620E-06 Eh
 * total energy  :   -31.5570210 Eh     change       -0.3063271E-06 Eh
 * total energy  :   -31.5570211 Eh     change       -0.1325391E-06 Eh
 * total energy  :   -31.5570212 Eh     change       -0.8886314E-07 Eh
 * total energy  :   -31.5570213 Eh     change       -0.9183919E-07 Eh
 * total energy  :   -31.5570213 Eh     change       -0.1740478E-08 Eh
   *** GEOMETRY OPTIMIZATION CONVERGED AFTER 68 ITERATIONS ***

 final structure:
================
26
 xtb: 6.7.0 (08769fc)
P            1.40691623444966       -0.31465533572457       -2.86107308189658
C            0.39789288542452       -0.60132017151176       -4.40489792793253
H           -0.65017918704438       -0.63489806135083       -4.09309451972093
H            0.51671402373285        0.23281780023309       -5.10129503395681
C            0.78547216068772       -1.91357537027817       -5.07220293109408
H            0.66864697093244       -2.74258466138310       -4.37691131397939
H            1.82556469581682       -1.88424757998220       -5.39359776042728
H            0.15971314482966       -2.10229650020563       -5.94301013186252
C            3.06154773742106       -0.05447927851521       -3.62690623656209
C            4.12134502780150       -0.77526448259090       -3.08779186916483
C            3.30489579049150        0.80440634292459       -4.69240069433797
C            5.39967839051084       -0.64330362737891       -3.59986913867768
C            4.58200267971581        0.93658872000459       -5.20533356176077
C            5.63165314615922        0.21420187996190       -4.66142729156859
H            3.93082855719847       -1.44326215489789       -2.25902922675087
H            2.49920304174199        1.37656426006632       -5.13062110579463
H            6.21495416378612       -1.20886090737429       -3.17210649207313
H            4.76081768541701        1.60672826240416       -6.03448214714921
H            6.62769859224947        0.32085818588104       -5.06592635204264
C            0.92783766266412        1.46594380253512       -2.57164661693593
H            1.00545362643561        2.03806141716117       -3.49989163569572
H           -0.12098910759143        1.46392478413164       -2.26075285850655
C            1.79277101172058        2.09128339000810       -1.48612597534312
H            2.83791530061161        2.10202946500582       -1.79193346287339
H            1.71536029604747        1.52079769448302       -0.56262927676475
H            1.48037346878948        3.11509012639041       -1.28685435713055

          :  Hamiltonian                  GFN2-xTB          :
         :: gradient norm              0.000027607812 Eh/a0 ::
         :: HOMO-LUMO gap              3.636970173253 eV    ::
         :: SCC energy               -32.077708416648 Eh    ::
         :: -> dispersion             -0.024032862067 Eh    ::
         :: repulsion energy           0.520687099450 Eh    ::

    * Orbital Energies and Occupations

         #    Occupation            Energy/Eh            Energy/eV
      -------------------------------------------------------------
         1        2.0000           -0.6581217             -17.9084
       ...           ...                  ...                  ...
        18        2.0000           -0.4773489             -12.9893
        19        2.0000           -0.4746482             -12.9158
        20        2.0000           -0.4704223             -12.8008
        21        2.0000           -0.4563435             -12.4177
        22        2.0000           -0.4561728             -12.4131
        23        2.0000           -0.4423030             -12.0357
        24        2.0000           -0.4364974             -11.8777
        25        2.0000           -0.4232536             -11.5173
        26        2.0000           -0.4194620             -11.4141
        27        2.0000           -0.4052673             -11.0279
        28        2.0000           -0.4045266             -11.0077
        29        2.0000           -0.3970009             -10.8029
        30        2.0000           -0.3672936              -9.9946 (HOMO)
        31                         -0.2336374              -6.3576 (LUMO)
        32                         -0.2230294              -6.0689
        33                         -0.1548814              -4.2145
        34                         -0.1507550              -4.1023
        35                         -0.0927976              -2.5252
        36                          0.0045918               0.1249
        37                          0.0548645               1.4929
        38                          0.0923533               2.5131
        39                          0.1109262               3.0185
        40                          0.1352140               3.6794
        41                          0.1375467               3.7428
       ...                                ...                  ...
        64                          0.7795567              21.2128
      -------------------------------------------------------------
                  HL-Gap            0.1336562 Eh            3.6370 eV

     #   Z          covCN         q      C6AA      α(0)
     1  15 P        3.056    -0.118   165.593    23.117
     2   6 C        3.748    -0.047    21.475     6.610
     3   1 H        0.926     0.038     2.469     2.457
     4   1 H        0.925     0.042     2.421     2.433
     5   6 C        3.821    -0.096    22.316     6.723
     6   1 H        0.925     0.042     2.429     2.437
     7   1 H        0.925     0.036     2.501     2.473
     8   1 H        0.925     0.033     2.546     2.495
     9   6 C        2.916     0.011    27.768     8.641
    10   6 C        3.016    -0.030    28.728     8.792
    11   6 C        2.961    -0.027    28.681     8.784
    12   6 C        2.918    -0.030    28.749     8.792
    13   6 C        2.919    -0.031    28.784     8.798
    14   6 C        2.920    -0.029    28.734     8.790
    15   1 H        0.925     0.040     2.451     2.448
    16   1 H        0.926     0.032     2.564     2.504
    17   1 H        0.926     0.030     2.588     2.516
    18   1 H        0.926     0.028     2.619     2.531
    19   1 H        0.926     0.029     2.603     2.523
    20   6 C        3.748    -0.047    21.475     6.610
    21   1 H        0.925     0.042     2.418     2.432
    22   1 H        0.926     0.039     2.468     2.457
    23   6 C        3.821    -0.096    22.317     6.723
    24   1 H        0.925     0.036     2.501     2.473
    25   1 H        0.925     0.042     2.428     2.437
    26   1 H        0.925     0.033     2.546     2.495

Wiberg/Mayer (AO) data.
largest (>0.10) Wiberg bond orders for each atom

     #   Z sym  total        # sym  WBO       # sym  WBO       # sym  WBO
 ---------------------------------------------------------------------------
     1  15 P    3.349 --     2 C    1.025    20 C    1.024     9 C    1.007
     2   6 C    3.993 --     1 P    1.025     5 C    1.017     3 H    0.958
                             4 H    0.951
     3   1 H    0.998 --     2 C    0.958
     4   1 H    0.998 --     2 C    0.951
     5   6 C    3.995 --     2 C    1.017     8 H    0.985     6 H    0.984
                             7 H    0.984
     6   1 H    0.998 --     5 C    0.984
     7   1 H    0.999 --     5 C    0.984
     8   1 H    0.999 --     5 C    0.985
     9   6 C    3.983 --    10 C    1.408    11 C    1.400     1 P    1.007
                            14 C    0.108
    10   6 C    3.992 --    12 C    1.443     9 C    1.408    15 H    0.964
                            13 C    0.108
    11   6 C    3.993 --    13 C    1.450     9 C    1.400    16 H    0.961
                            12 C    0.111
    12   6 C    3.992 --    10 C    1.443    14 C    1.441    17 H    0.970
                            11 C    0.111
    13   6 C    3.993 --    11 C    1.450    14 C    1.432    18 H    0.970
                            10 C    0.108
    14   6 C    3.985 --    12 C    1.441    13 C    1.432    19 H    0.971
                             9 C    0.108
    15   1 H    0.998 --    10 C    0.964
    16   1 H    0.999 --    11 C    0.961
    17   1 H    0.999 --    12 C    0.970
    18   1 H    0.999 --    13 C    0.970
    19   1 H    0.999 --    14 C    0.971
    20   6 C    3.993 --     1 P    1.024    23 C    1.017    22 H    0.958
                            21 H    0.951
    21   1 H    0.998 --    20 C    0.951
    22   1 H    0.998 --    20 C    0.958
    23   6 C    3.995 --    20 C    1.017    25 H    0.985    26 H    0.984
                            24 H    0.984
    24   1 H    0.999 --    23 C    0.984
    25   1 H    0.998 --    23 C    0.985
    26   1 H    0.999 --    23 C    0.984
 ---------------------------------------------------------------------------

molecular dipole:
                 x           y           z       tot (Debye)
 q only:       -0.051       0.163      -0.167
   full:       -0.001       0.428      -0.479       1.633

 projected vibrational frequencies (cm⁻¹)
eigval :       -0.00    -0.00     0.00     0.00     0.00     0.00
eigval :       17.87    50.26    65.11   121.02   122.40   164.12
eigval :      199.53   213.85   232.34   295.27   318.10   320.76
eigval :      363.60   401.38   450.35   586.08   657.50   668.76
eigval :      687.34   704.80   735.13   753.36   780.17   874.99
eigval :      899.13   926.82   932.95   969.39   975.73   998.52
eigval :     1003.59  1020.12  1062.82  1082.81  1085.09  1116.95
eigval :     1121.55  1181.70  1198.84  1217.03  1229.78  1244.56
eigval :     1255.32  1278.93  1315.83  1410.36  1411.02  1423.55
eigval :     1442.65  1449.95  1457.91  1497.23  1497.34  1501.61
eigval :     1501.81  1580.05  1589.67  2931.53  2936.89  2944.71
eigval :     2951.18  3014.01  3014.48  3019.53  3019.61  3029.52
eigval :     3030.64  3061.40  3063.73  3070.79  3077.02  3087.75

   temp. (K)  partition function   enthalpy   heat capacity  entropy
                                   cal/mol     cal/K/mol   cal/K/mol   J/K/mol
 298.15  VIB  0.381E+05             6235.761     39.143     38.707
         ROT  0.118E+07              888.752      2.981     30.762
         INT  0.449E+11             7124.513     42.124     69.470
         TR   0.207E+28             1481.254      4.968     41.214
         TOT                        8605.7673    47.0920   110.6831   463.0981

       T/K    H(0)-H(T)+PV         H(T)/Eh          T*S/Eh         G(T)/Eh
   ------------------------------------------------------------------------
    298.15    0.137142E-01    0.232230E+00    0.525891E-01    0.179641E+00
   ------------------------------------------------------------------------

         :::::::::::::::::::::::::::::::::::::::::::::::::::::
         ::                  THERMODYNAMIC                  ::
         :::::::::::::::::::::::::::::::::::::::::::::::::::::
         :: total free energy         -31.377380274434 Eh   ::
         ::.................................................::
         :: total energy              -31.557021317198 Eh   ::
         :: zero point energy           0.218515998550 Eh   ::
         :: G(RRHO) w/o ZPVE           -0.038874955786 Eh   ::
         :: G(RRHO) contrib.            0.179641042764 Eh   ::
         :::::::::::::::::::::::::::::::::::::::::::::::::::::

           -------------------------------------------------
          | TOTAL ENERGY              -31.557021317198 Eh   |
          | TOTAL ENTHALPY            -31.324791155466 Eh   |
          | TOTAL FREE ENERGY         -31.377380274434 Eh   |
          | GRADIENT NORM               0.000027608612 Eh/α |
          | HOMO-LUMO GAP               3.636970158116 eV   |
           -------------------------------------------------

 * finished run on 2025/07/14 at 11:33:58.830
