   * xtb version 6.7.0 (08769fc) compiled by 'albert@albert-system' on 2024-03-04

   ID    Z sym.   atoms
    1   15 P      1
    2    6 C      2, 5, 9-14, 20, 23
    3    1 H      3, 4, 6-8, 15-19, 21, 22, 24-26

          program call               : /home/minenky/programs/xtb/xtb-dist/bin/xtb m1_00_PEt2Ph-PBE0-D3-TZ-uniMM_62.xyz --charge 0 --T --ohess extreme --cycles 5000 --acc 0.01 --iterations 5000
          :  Hamiltonian                  GFN2-xTB          :
 * total energy  :   -31.5297791 Eh     change       -0.7815970E-13 Eh
 * total energy  :   -31.5422863 Eh     change       -0.1250716E-01 Eh
 * total energy  :   -31.5454789 Eh     change       -0.3192567E-02 Eh
 * total energy  :   -31.5470020 Eh     change       -0.1523144E-02 Eh
 * total energy  :   -31.5474974 Eh     change       -0.4953771E-03 Eh
 * total energy  :   -31.5476461 Eh     change       -0.1487570E-03 Eh
 * total energy  :   -31.5477069 Eh     change       -0.6072957E-04 Eh
 * total energy  :   -31.5477444 Eh     change       -0.3753531E-04 Eh
 * total energy  :   -31.5477655 Eh     change       -0.2113666E-04 Eh
 * total energy  :   -31.5477909 Eh     change       -0.2535592E-04 Eh
 * total energy  :   -31.5526370 Eh     change       -0.3891582E-06 Eh
 * total energy  :   -31.5526374 Eh     change       -0.3818155E-06 Eh
 * total energy  :   -31.5526378 Eh     change       -0.3740293E-06 Eh
 * total energy  :   -31.5526381 Eh     change       -0.3638216E-06 Eh
 * total energy  :   -31.5526385 Eh     change       -0.3530359E-06 Eh
 * total energy  :   -31.5526388 Eh     change       -0.3398478E-06 Eh
 * total energy  :   -31.5526392 Eh     change       -0.3281116E-06 Eh
 * total energy  :   -31.5526395 Eh     change       -0.3141502E-06 Eh
 * total energy  :   -31.5526395 Eh     change       -0.2546329E-08 Eh
   *** GEOMETRY OPTIMIZATION CONVERGED AFTER 260 ITERATIONS ***

 final structure:
================
26
 xtb: 6.7.0 (08769fc)
P            1.61961811782659       -0.51316877639717       -3.21755409533152
C            2.57475020321754       -1.98547646262013       -3.86575592609072
H            2.00261835579102       -2.86706733100948       -3.56109571258032
H            2.48491328388826       -1.91982299267129       -4.95529297418149
C            4.04753347020493       -2.14691568391443       -3.50484194452715
H            4.21203135930335       -2.11983869930194       -2.43044110301668
H            4.64730963037598       -1.36337160220818       -3.96123783855661
H            4.40706135169460       -3.10495970637074       -3.87915756219333
C            1.30421723957565       -0.94952722517770       -1.46061100199621
C            1.81346654658240       -2.05175779425740       -0.78572461815387
C            0.43025548068955       -0.09803098542781       -0.78700024151849
C            1.48841968003590       -2.27007770366946        0.54211160555018
C            0.11134149443998       -0.31208009665182        0.54014338264098
C            0.64726340318207       -1.39860069077790        1.21164062303131
H            2.45967951787693       -2.75516984328584       -1.28733106680560
H           -0.00814151126460        0.73278548261063       -1.32346039621523
H            1.89569344563760       -3.12904953264369        1.05679515458658
H           -0.56190361352940        0.36214719365978        1.05009960653451
H            0.40044979822177       -1.57224586812561        2.24888307403713
C            3.02430620000172        0.69187711933173       -2.94342790222215
H            3.76086635529392        0.25620597606489       -2.26447570277659
H            3.49003136874071        0.83911100696224       -3.92214782045853
C            2.53921643197592        2.02871762755544       -2.40230353447372
H            2.13317204114703        1.91299001026926       -1.39949990895323
H            1.76389814975768        2.44354357449747       -3.04371548637575
H            3.36411619933322        2.73830400356000       -2.35602660995419

          :  Hamiltonian                  GFN2-xTB          :
         :: gradient norm              0.000041173939 Eh/a0 ::
         :: HOMO-LUMO gap              3.637693043621 eV    ::
         :: SCC energy               -32.072972819297 Eh    ::
         :: -> dispersion             -0.024180896211 Eh    ::
         :: repulsion energy           0.520333343978 Eh    ::

    * Orbital Energies and Occupations

         #    Occupation            Energy/Eh            Energy/eV
      -------------------------------------------------------------
         1        2.0000           -0.6578112             -17.9000
       ...           ...                  ...                  ...
        18        2.0000           -0.4749220             -12.9233
        19        2.0000           -0.4731641             -12.8754
        20        2.0000           -0.4666665             -12.6986
        21        2.0000           -0.4608834             -12.5413
        22        2.0000           -0.4563676             -12.4184
        23        2.0000           -0.4435323             -12.0691
        24        2.0000           -0.4415410             -12.0149
        25        2.0000           -0.4235054             -11.5242
        26        2.0000           -0.4155827             -11.3086
        27        2.0000           -0.4055490             -11.0356
        28        2.0000           -0.4021483             -10.9430
        29        2.0000           -0.3975843             -10.8188
        30        2.0000           -0.3633725              -9.8879 (HOMO)
        31                         -0.2296898              -6.2502 (LUMO)
        32                         -0.2212087              -6.0194
        33                         -0.1566431              -4.2625
        34                         -0.1498255              -4.0770
        35                         -0.0924706              -2.5163
        36                         -0.0115149              -0.3133
        37                          0.0650115               1.7691
        38                          0.0897039               2.4410
        39                          0.1151044               3.1321
        40                          0.1225972               3.3360
        41                          0.1344661               3.6590
       ...                                ...                  ...
        64                          0.7727477              21.0275
      -------------------------------------------------------------
                  HL-Gap            0.1336828 Eh            3.6377 eV

     #   Z          covCN         q      C6AA      α(0)
     1  15 P        3.005    -0.118   165.590    23.117
     2   6 C        3.747    -0.048    21.498     6.613
     3   1 H        0.926     0.044     2.400     2.422
     4   1 H        0.926     0.039     2.465     2.455
     5   6 C        3.769    -0.095    22.344     6.737
     6   1 H        0.925     0.039     2.467     2.456
     7   1 H        0.925     0.037     2.495     2.470
     8   1 H        0.925     0.033     2.546     2.495
     9   6 C        2.915     0.010    27.800     8.646
    10   6 C        2.954    -0.033    28.822     8.806
    11   6 C        3.035    -0.031    28.737     8.793
    12   6 C        2.920    -0.031    28.785     8.798
    13   6 C        2.918    -0.030    28.759     8.794
    14   6 C        2.920    -0.030    28.761     8.794
    15   1 H        0.926     0.036     2.503     2.474
    16   1 H        0.925     0.038     2.476     2.461
    17   1 H        0.926     0.027     2.633     2.538
    18   1 H        0.926     0.028     2.613     2.528
    19   1 H        0.926     0.028     2.620     2.531
    20   6 C        3.748    -0.043    21.417     6.601
    21   1 H        0.925     0.046     2.368     2.407
    22   1 H        0.926     0.042     2.424     2.435
    23   6 C        3.808    -0.098    22.370     6.733
    24   1 H        0.925     0.039     2.459     2.452
    25   1 H        0.925     0.041     2.429     2.437
    26   1 H        0.925     0.033     2.547     2.496

Wiberg/Mayer (AO) data.
largest (>0.10) Wiberg bond orders for each atom

     #   Z sym  total        # sym  WBO       # sym  WBO       # sym  WBO
 ---------------------------------------------------------------------------
     1  15 P    3.364 --     2 C    1.028     9 C    1.016    20 C    1.012
     2   6 C    3.991 --     1 P    1.028     5 C    1.010     4 H    0.959
                             3 H    0.953
     3   1 H    0.998 --     2 C    0.953
     4   1 H    0.998 --     2 C    0.959
     5   6 C    3.997 --     2 C    1.010     7 H    0.986     8 H    0.983
                             6 H    0.981
     6   1 H    0.998 --     5 C    0.981
     7   1 H    0.999 --     5 C    0.986
     8   1 H    0.999 --     5 C    0.983
     9   6 C    3.982 --    10 C    1.404    11 C    1.393     1 P    1.016
                            14 C    0.106
    10   6 C    3.992 --    12 C    1.442     9 C    1.404    15 H    0.961
                            13 C    0.108
    11   6 C    3.992 --    13 C    1.452     9 C    1.393    16 H    0.962
                            12 C    0.109
    12   6 C    3.992 --    10 C    1.442    14 C    1.439    17 H    0.970
                            11 C    0.109
    13   6 C    3.991 --    11 C    1.452    14 C    1.431    18 H    0.970
                            10 C    0.108
    14   6 C    3.992 --    12 C    1.439    13 C    1.431    19 H    0.971
                             9 C    0.106
    15   1 H    0.999 --    10 C    0.961
    16   1 H    0.999 --    11 C    0.962
    17   1 H    0.999 --    12 C    0.970
    18   1 H    0.999 --    13 C    0.970
    19   1 H    0.999 --    14 C    0.971
    20   6 C    3.996 --    23 C    1.017     1 P    1.012    22 H    0.955
                            21 H    0.953
    21   1 H    0.998 --    20 C    0.953
    22   1 H    0.997 --    20 C    0.955
    23   6 C    3.996 --    20 C    1.017    25 H    0.985    26 H    0.984
                            24 H    0.983
    24   1 H    0.998 --    23 C    0.983
    25   1 H    0.998 --    23 C    0.985
    26   1 H    0.999 --    23 C    0.984
 ---------------------------------------------------------------------------

molecular dipole:
                 x           y           z       tot (Debye)
 q only:        0.329       0.011       0.014
   full:        0.611      -0.122       0.237       1.696

 projected vibrational frequencies (cm⁻¹)
eigval :       -0.00    -0.00     0.00     0.00     0.00     0.00
eigval :       21.86    75.17   108.74   128.94   165.04   177.18
eigval :      217.30   229.95   253.03   261.07   287.65   365.89
eigval :      378.41   409.31   460.95   585.63   643.88   660.28
eigval :      682.32   688.19   736.74   749.36   778.97   876.85
eigval :      900.81   928.44   933.69   968.13   991.10   999.13
eigval :     1017.97  1020.07  1061.10  1080.73  1084.69  1115.30
eigval :     1121.22  1181.54  1202.26  1228.87  1232.73  1248.08
eigval :     1276.35  1283.75  1316.08  1408.66  1410.71  1421.39
eigval :     1442.82  1455.68  1462.85  1497.68  1503.14  1505.61
eigval :     1512.70  1578.14  1589.00  2928.62  2941.59  2948.26
eigval :     2950.93  3008.13  3012.32  3025.32  3031.53  3034.26
eigval :     3042.29  3058.25  3066.86  3073.88  3086.56  3099.80

   temp. (K)  partition function   enthalpy   heat capacity  entropy
                                   cal/mol     cal/K/mol   cal/K/mol   J/K/mol
 298.15  VIB  0.978E+04             6031.794     39.517     36.299
         ROT  0.117E+07              888.752      2.981     30.750
         INT  0.115E+11             6920.546     42.498     67.048
         TR   0.207E+28             1481.254      4.968     41.214
         TOT                        8401.8003    47.4660   108.2619   452.9679

       T/K    H(0)-H(T)+PV         H(T)/Eh          T*S/Eh         G(T)/Eh
   ------------------------------------------------------------------------
    298.15    0.133891E-01    0.232621E+00    0.514387E-01    0.181182E+00
   ------------------------------------------------------------------------

         :::::::::::::::::::::::::::::::::::::::::::::::::::::
         ::                  THERMODYNAMIC                  ::
         :::::::::::::::::::::::::::::::::::::::::::::::::::::
         :: total free energy         -31.371457116615 Eh   ::
         ::.................................................::
         :: total energy              -31.552639475318 Eh   ::
         :: zero point energy           0.219231973814 Eh   ::
         :: G(RRHO) w/o ZPVE           -0.038049615112 Eh   ::
         :: G(RRHO) contrib.            0.181182358703 Eh   ::
         :::::::::::::::::::::::::::::::::::::::::::::::::::::

           -------------------------------------------------
          | TOTAL ENERGY              -31.552639475318 Eh   |
          | TOTAL ENTHALPY            -31.320018380449 Eh   |
          | TOTAL FREE ENERGY         -31.371457116615 Eh   |
          | GRADIENT NORM               0.000041173880 Eh/α |
          | HOMO-LUMO GAP               3.637693099279 eV   |
           -------------------------------------------------

 * finished run on 2025/07/14 at 11:36:34.507
