   * xtb version 6.7.0 (08769fc) compiled by 'albert@albert-system' on 2024-03-04

   ID    Z sym.   atoms
    1   15 P      1
    2    6 C      2, 5, 9-14, 20, 23
    3    1 H      3, 4, 6-8, 15-19, 21, 22, 24-26

          program call               : /home/minenky/programs/xtb/xtb-dist/bin/xtb m1_00_PEt2Ph-PBE0-D3-TZ-uniMM_16.xyz --charge 0 --T --ohess extreme --cycles 5000 --acc 0.01 --iterations 5000
          :  Hamiltonian                  GFN2-xTB          :
 * total energy  :   -31.5483114 Eh     change        0.2131628E-13 Eh
 * total energy  :   -31.5519505 Eh     change       -0.3639062E-02 Eh
 * total energy  :   -31.5526698 Eh     change       -0.7193307E-03 Eh
 * total energy  :   -31.5529899 Eh     change       -0.3200835E-03 Eh
 * total energy  :   -31.5532168 Eh     change       -0.2268785E-03 Eh
 * total energy  :   -31.5535120 Eh     change       -0.2951978E-03 Eh
 * total energy  :   -31.5538065 Eh     change       -0.2945579E-03 Eh
 * total energy  :   -31.5540873 Eh     change       -0.2807914E-03 Eh
 * total energy  :   -31.5542751 Eh     change       -0.1877454E-03 Eh
 * total energy  :   -31.5543694 Eh     change       -0.9427331E-04 Eh
 * total energy  :   -31.5546747 Eh     change       -0.2562949E-06 Eh
 * total energy  :   -31.5546749 Eh     change       -0.2524651E-06 Eh
 * total energy  :   -31.5546752 Eh     change       -0.2477161E-06 Eh
 * total energy  :   -31.5546754 Eh     change       -0.2422740E-06 Eh
 * total energy  :   -31.5546756 Eh     change       -0.2344722E-06 Eh
 * total energy  :   -31.5546759 Eh     change       -0.2240566E-06 Eh
 * total energy  :   -31.5546761 Eh     change       -0.2119538E-06 Eh
 * total energy  :   -31.5546763 Eh     change       -0.1992709E-06 Eh
 * total energy  :   -31.5546763 Eh     change       -0.1845333E-08 Eh
   *** GEOMETRY OPTIMIZATION CONVERGED AFTER 68 ITERATIONS ***

 final structure:
================
26
 xtb: 6.7.0 (08769fc)
P            1.72294355182139       -0.33239477029083       -2.97241759925460
C            0.34529848915770        0.44457769041977       -1.96965423114241
H           -0.01559596659360        1.35486703825506       -2.45596994726403
H           -0.47422710069081       -0.27805710938522       -1.92813736823530
C            0.81506064801655        0.75377176993777       -0.55226315636687
H            1.64754503366176        1.45387654531380       -0.55935431414774
H            1.14714630371038       -0.15734584015756       -0.05911571313157
H            0.00551665891637        1.18774610364375        0.03301700061194
C            0.73807514448682       -1.17321979432776       -4.27984752368149
C            1.26885278598683       -2.34251471927928       -4.81327941889510
C           -0.47454903096547       -0.69978824025593       -4.76763828307617
C            0.60685955276647       -3.02552124425161       -5.81738957766908
C           -1.13897088068765       -1.38519160988795       -5.76843587308683
C           -0.60078655488304       -2.54718384632570       -6.29624769252929
H            2.20951068589655       -2.71302054956846       -4.42948432663758
H           -0.90763191281036        0.20573696785336       -4.36784981709832
H            1.03036156902206       -3.93226346874840       -6.22477322687419
H           -2.08200415533439       -1.00992714632248       -6.14030275089859
H           -1.12347015974621       -3.07841369111251       -7.07830458005346
C            2.22266771102406        1.12916886190944       -4.02750415683166
H            2.86251450889192        0.72516939546402       -4.81787855493423
H            1.33392944284293        1.55766315008468       -4.50088718451918
C            2.98134782405718        2.18781403664915       -3.24045258929025
H            3.83227939990880        1.74349572003527       -2.72764791248804
H            2.33823663532291        2.65492708736835       -2.49776050486061
H            3.34945881622359        2.96569666297614       -3.90786269764426

          :  Hamiltonian                  GFN2-xTB          :
         :: gradient norm              0.000035045634 Eh/a0 ::
         :: HOMO-LUMO gap              3.666042076995 eV    ::
         :: SCC energy               -32.074863586209 Eh    ::
         :: -> dispersion             -0.023355064054 Eh    ::
         :: repulsion energy           0.520187315460 Eh    ::

    * Orbital Energies and Occupations

         #    Occupation            Energy/Eh            Energy/eV
      -------------------------------------------------------------
         1        2.0000           -0.6577515             -17.8983
       ...           ...                  ...                  ...
        18        2.0000           -0.4778578             -13.0032
        19        2.0000           -0.4773213             -12.9886
        20        2.0000           -0.4631814             -12.6038
        21        2.0000           -0.4599448             -12.5157
        22        2.0000           -0.4522988             -12.3077
        23        2.0000           -0.4461808             -12.1412
        24        2.0000           -0.4392762             -11.9533
        25        2.0000           -0.4230047             -11.5105
        26        2.0000           -0.4165163             -11.3340
        27        2.0000           -0.4045986             -11.0097
        28        2.0000           -0.4039626             -10.9924
        29        2.0000           -0.3967505             -10.7961
        30        2.0000           -0.3669116              -9.9842 (HOMO)
        31                         -0.2321870              -6.3181 (LUMO)
        32                         -0.2227155              -6.0604
        33                         -0.1601121              -4.3569
        34                         -0.1502732              -4.0891
        35                         -0.0928883              -2.5276
        36                         -0.0064848              -0.1765
        37                          0.0723400               1.9685
        38                          0.0835338               2.2731
        39                          0.1012764               2.7559
        40                          0.1332936               3.6271
        41                          0.1404668               3.8223
       ...                                ...                  ...
        64                          0.7799731              21.2241
      -------------------------------------------------------------
                  HL-Gap            0.1347246 Eh            3.6660 eV

     #   Z          covCN         q      C6AA      α(0)
     1  15 P        3.037    -0.109   165.197    23.089
     2   6 C        3.747    -0.047    21.486     6.612
     3   1 H        0.925     0.041     2.433     2.439
     4   1 H        0.925     0.040     2.443     2.444
     5   6 C        3.818    -0.098    22.358     6.729
     6   1 H        0.925     0.038     2.472     2.459
     7   1 H        0.925     0.041     2.435     2.440
     8   1 H        0.925     0.031     2.579     2.511
     9   6 C        2.916     0.004    27.934     8.667
    10   6 C        3.015    -0.031    28.749     8.795
    11   6 C        2.962    -0.031    28.769     8.798
    12   6 C        2.918    -0.029    28.737     8.791
    13   6 C        2.919    -0.031    28.769     8.796
    14   6 C        2.920    -0.029    28.736     8.791
    15   1 H        0.925     0.039     2.467     2.456
    16   1 H        0.926     0.033     2.547     2.495
    17   1 H        0.926     0.031     2.577     2.510
    18   1 H        0.926     0.029     2.605     2.524
    19   1 H        0.926     0.030     2.592     2.517
    20   6 C        3.747    -0.045    21.449     6.606
    21   1 H        0.926     0.038     2.472     2.459
    22   1 H        0.925     0.042     2.424     2.435
    23   6 C        3.805    -0.096    22.329     6.727
    24   1 H        0.925     0.041     2.434     2.440
    25   1 H        0.925     0.038     2.476     2.461
    26   1 H        0.925     0.032     2.552     2.498

Wiberg/Mayer (AO) data.
largest (>0.10) Wiberg bond orders for each atom

     #   Z sym  total        # sym  WBO       # sym  WBO       # sym  WBO
 ---------------------------------------------------------------------------
     1  15 P    3.337 --     2 C    1.026    20 C    1.019     9 C    1.007
     2   6 C    3.995 --     1 P    1.026     5 C    1.016     4 H    0.959
                             3 H    0.954
     3   1 H    0.998 --     2 C    0.954
     4   1 H    0.998 --     2 C    0.959
     5   6 C    3.996 --     2 C    1.016     7 H    0.985     8 H    0.985
                             6 H    0.983
     6   1 H    0.999 --     5 C    0.983
     7   1 H    0.998 --     5 C    0.985
     8   1 H    0.999 --     5 C    0.985
     9   6 C    3.983 --    10 C    1.407    11 C    1.400     1 P    1.007
                            14 C    0.108
    10   6 C    3.991 --    12 C    1.444     9 C    1.407    15 H    0.964
                            13 C    0.109
    11   6 C    3.992 --    13 C    1.448     9 C    1.400    16 H    0.963
                            12 C    0.110
    12   6 C    3.992 --    10 C    1.444    14 C    1.439    17 H    0.970
                            11 C    0.110
    13   6 C    3.993 --    11 C    1.448    14 C    1.434    18 H    0.970
                            10 C    0.109
    14   6 C    3.990 --    12 C    1.439    13 C    1.434    19 H    0.971
                             9 C    0.108
    15   1 H    0.998 --    10 C    0.964
    16   1 H    0.999 --    11 C    0.963
    17   1 H    0.999 --    12 C    0.970
    18   1 H    0.999 --    13 C    0.970
    19   1 H    0.998 --    14 C    0.971
    20   6 C    3.995 --     1 P    1.019    23 C    1.017    21 H    0.959
                            22 H    0.952
    21   1 H    0.998 --    20 C    0.959
    22   1 H    0.998 --    20 C    0.952
    23   6 C    3.996 --    20 C    1.017    24 H    0.985    26 H    0.984
                            25 H    0.983
    24   1 H    0.998 --    23 C    0.985
    25   1 H    0.999 --    23 C    0.983
    26   1 H    0.998 --    23 C    0.984
 ---------------------------------------------------------------------------

molecular dipole:
                 x           y           z       tot (Debye)
 q only:       -0.101       0.244      -0.039
   full:       -0.389       0.443      -0.248       1.626

 projected vibrational frequencies (cm⁻¹)
eigval :       -0.00    -0.00    -0.00     0.00     0.00     0.00
eigval :       28.03    72.85    79.66   100.44   121.09   177.03
eigval :      204.23   217.15   245.22   265.00   271.95   325.92
eigval :      362.74   441.04   456.86   585.96   655.28   660.55
eigval :      686.00   703.27   734.28   740.92   789.81   874.90
eigval :      898.97   926.90   932.44   969.43   971.22  1010.20
eigval :     1014.70  1018.40  1070.90  1073.84  1083.24  1118.48
eigval :     1120.48  1181.60  1198.87  1222.52  1231.85  1252.09
eigval :     1255.48  1278.30  1315.31  1407.82  1411.26  1423.56
eigval :     1444.35  1451.51  1457.83  1494.72  1497.61  1502.96
eigval :     1507.79  1579.64  1589.42  2924.32  2934.89  2945.37
eigval :     2949.46  3011.77  3012.69  3026.00  3028.73  3033.31
eigval :     3036.76  3063.18  3066.17  3074.45  3079.85  3088.21

   temp. (K)  partition function   enthalpy   heat capacity  entropy
                                   cal/mol     cal/K/mol   cal/K/mol   J/K/mol
 298.15  VIB  0.175E+05             6202.071     39.613     38.216
         ROT  0.124E+07              888.752      2.981     30.864
         INT  0.217E+11             7090.824     42.594     69.080
         TR   0.207E+28             1481.254      4.968     41.214
         TOT                        8572.0776    47.5620   110.2937   461.4688

       T/K    H(0)-H(T)+PV         H(T)/Eh          T*S/Eh         G(T)/Eh
   ------------------------------------------------------------------------
    298.15    0.136605E-01    0.232340E+00    0.524041E-01    0.179936E+00
   ------------------------------------------------------------------------

         :::::::::::::::::::::::::::::::::::::::::::::::::::::
         ::                  THERMODYNAMIC                  ::
         :::::::::::::::::::::::::::::::::::::::::::::::::::::
         :: total free energy         -31.374740730686 Eh   ::
         ::.................................................::
         :: total energy              -31.554676270749 Eh   ::
         :: zero point energy           0.218679153082 Eh   ::
         :: G(RRHO) w/o ZPVE           -0.038743613019 Eh   ::
         :: G(RRHO) contrib.            0.179935540063 Eh   ::
         :::::::::::::::::::::::::::::::::::::::::::::::::::::

           -------------------------------------------------
          | TOTAL ENERGY              -31.554676270749 Eh   |
          | TOTAL ENTHALPY            -31.322336642560 Eh   |
          | TOTAL FREE ENERGY         -31.374740730686 Eh   |
          | GRADIENT NORM               0.000035045530 Eh/α |
          | HOMO-LUMO GAP               3.666042122360 eV   |
           -------------------------------------------------

 * finished run on 2025/07/14 at 11:27:23.332
