   * xtb version 6.7.0 (08769fc) compiled by 'albert@albert-system' on 2024-03-04

   ID    Z sym.   atoms
    1   15 P      1
    2    6 C      2, 5, 9-14, 20, 23
    3    1 H      3, 4, 6-8, 15-19, 21, 22, 24-26

          program call               : /home/minenky/programs/xtb/xtb-dist/bin/xtb m1_00_PEt2Ph-PBE0-D3-TZ-uniMM_22.xyz --charge 0 --T --ohess extreme --cycles 5000 --acc 0.01 --iterations 5000
          :  Hamiltonian                  GFN2-xTB          :
 * total energy  :   -31.5430720 Eh     change        0.2842171E-13 Eh
 * total energy  :   -31.5489998 Eh     change       -0.5927736E-02 Eh
 * total energy  :   -31.5502067 Eh     change       -0.1206930E-02 Eh
 * total energy  :   -31.5507482 Eh     change       -0.5415298E-03 Eh
 * total energy  :   -31.5509200 Eh     change       -0.1717302E-03 Eh
 * total energy  :   -31.5510920 Eh     change       -0.1720359E-03 Eh
 * total energy  :   -31.5512657 Eh     change       -0.1737060E-03 Eh
 * total energy  :   -31.5514221 Eh     change       -0.1563733E-03 Eh
 * total energy  :   -31.5515881 Eh     change       -0.1660507E-03 Eh
 * total energy  :   -31.5517910 Eh     change       -0.2029027E-03 Eh
 * total energy  :   -31.5546785 Eh     change       -0.1468724E-06 Eh
 * total energy  :   -31.5546786 Eh     change       -0.1416020E-06 Eh
 * total energy  :   -31.5546787 Eh     change       -0.1327514E-06 Eh
 * total energy  :   -31.5546789 Eh     change       -0.1230403E-06 Eh
 * total energy  :   -31.5546790 Eh     change       -0.1121435E-06 Eh
 * total energy  :   -31.5546791 Eh     change       -0.1020765E-06 Eh
 * total energy  :   -31.5546792 Eh     change       -0.9340697E-07 Eh
 * total energy  :   -31.5546793 Eh     change       -0.8695068E-07 Eh
 * total energy  :   -31.5546793 Eh     change       -0.8480470E-09 Eh
   *** GEOMETRY OPTIMIZATION CONVERGED AFTER 68 ITERATIONS ***

 final structure:
================
26
 xtb: 6.7.0 (08769fc)
P            1.39125303550112       -0.45834575497815       -3.07063014753964
C            2.78958769755117        0.71250088736565       -3.48548508157236
H            3.74203338562384        0.26658486772651       -3.18338302186403
H            2.79256349512354        0.80469085441278       -4.57579230053775
C            2.60951905005528        2.08456584601223       -2.85221490717080
H            2.67408606535543        2.02331749764636       -1.76797575029651
H            1.63906139932794        2.50082920787357       -3.11562119393183
H            3.38300872156717        2.76772754962018       -3.20014280629775
C            2.14316602024584       -1.94309317774390       -3.85615665395233
C            3.29757452746743       -2.56462712432586       -3.39358026123259
C            1.51134753008259       -2.44972658604728       -4.98623781378886
C            3.80660480054518       -3.66914665784647       -4.05182900123302
C            2.02198669675762       -3.55272756996190       -5.64657349838819
C            3.17199549268238       -4.16507035513421       -5.17882769325033
H            3.80388419867188       -2.19064304655557       -2.51527224627832
H            0.61040594771218       -1.96914026214958       -5.34206763760446
H            4.70435551181950       -4.14602097664290       -3.68433674057865
H            1.52206152650095       -3.93703732645292       -6.52399657493073
H            3.57351163326722       -5.02830467887476       -5.68935529663974
C            1.78520904079528       -0.81221932605489       -1.27371119242394
H            1.66447736932870       -1.88793558060295       -1.11961971280072
H            2.82031991517684       -0.54174957196258       -1.04871461735348
C            0.83055429632582       -0.06076452084477       -0.35232731466292
H           -0.19726551789877       -0.35274823193259       -0.55717159183588
H            0.90953652944599        1.01415846027490       -0.49940972063063
H            1.05110763096850       -0.28263442282046        0.69091177679396

          :  Hamiltonian                  GFN2-xTB          :
         :: gradient norm              0.000023665836 Eh/a0 ::
         :: HOMO-LUMO gap              3.658675570707 eV    ::
         :: SCC energy               -32.074851998530 Eh    ::
         :: -> dispersion             -0.023351032499 Eh    ::
         :: repulsion energy           0.520172741023 Eh    ::

    * Orbital Energies and Occupations

         #    Occupation            Energy/Eh            Energy/eV
      -------------------------------------------------------------
         1        2.0000           -0.6576874             -17.8966
       ...           ...                  ...                  ...
        18        2.0000           -0.4779081             -13.0045
        19        2.0000           -0.4773950             -12.9906
        20        2.0000           -0.4630688             -12.6007
        21        2.0000           -0.4599646             -12.5163
        22        2.0000           -0.4523008             -12.3077
        23        2.0000           -0.4460025             -12.1363
        24        2.0000           -0.4392680             -11.9531
        25        2.0000           -0.4231044             -11.5133
        26        2.0000           -0.4166003             -11.3363
        27        2.0000           -0.4045322             -11.0079
        28        2.0000           -0.4039687             -10.9925
        29        2.0000           -0.3967036             -10.7949
        30        2.0000           -0.3669449              -9.9851 (HOMO)
        31                         -0.2324911              -6.3264 (LUMO)
        32                         -0.2227841              -6.0623
        33                         -0.1602238              -4.3599
        34                         -0.1501768              -4.0865
        35                         -0.0927979              -2.5252
        36                         -0.0067800              -0.1845
        37                          0.0722863               1.9670
        38                          0.0834610               2.2711
        39                          0.1007163               2.7406
        40                          0.1342175               3.6522
        41                          0.1402192               3.8156
       ...                                ...                  ...
        64                          0.7800987              21.2276
      -------------------------------------------------------------
                  HL-Gap            0.1344539 Eh            3.6587 eV

     #   Z          covCN         q      C6AA      α(0)
     1  15 P        3.036    -0.109   165.200    23.090
     2   6 C        3.747    -0.045    21.452     6.606
     3   1 H        0.925     0.042     2.422     2.434
     4   1 H        0.926     0.038     2.474     2.460
     5   6 C        3.805    -0.096    22.328     6.727
     6   1 H        0.925     0.038     2.476     2.461
     7   1 H        0.925     0.041     2.435     2.440
     8   1 H        0.925     0.032     2.553     2.499
     9   6 C        2.916     0.004    27.935     8.667
    10   6 C        2.963    -0.031    28.761     8.797
    11   6 C        3.013    -0.031    28.749     8.795
    12   6 C        2.919    -0.031    28.769     8.796
    13   6 C        2.918    -0.029    28.736     8.791
    14   6 C        2.920    -0.029    28.734     8.790
    15   1 H        0.926     0.033     2.548     2.496
    16   1 H        0.925     0.039     2.464     2.455
    17   1 H        0.926     0.029     2.604     2.524
    18   1 H        0.926     0.031     2.576     2.510
    19   1 H        0.926     0.030     2.591     2.517
    20   6 C        3.747    -0.047    21.487     6.612
    21   1 H        0.925     0.040     2.448     2.447
    22   1 H        0.925     0.041     2.433     2.439
    23   6 C        3.818    -0.098    22.358     6.730
    24   1 H        0.925     0.041     2.436     2.441
    25   1 H        0.925     0.038     2.471     2.458
    26   1 H        0.925     0.031     2.579     2.511

Wiberg/Mayer (AO) data.
largest (>0.10) Wiberg bond orders for each atom

     #   Z sym  total        # sym  WBO       # sym  WBO       # sym  WBO
 ---------------------------------------------------------------------------
     1  15 P    3.335 --    20 C    1.025     2 C    1.020     9 C    1.007
     2   6 C    3.995 --     1 P    1.020     5 C    1.017     4 H    0.959
                             3 H    0.952
     3   1 H    0.998 --     2 C    0.952
     4   1 H    0.998 --     2 C    0.959
     5   6 C    3.996 --     2 C    1.017     7 H    0.985     8 H    0.984
                             6 H    0.983
     6   1 H    0.999 --     5 C    0.983
     7   1 H    0.998 --     5 C    0.985
     8   1 H    0.998 --     5 C    0.984
     9   6 C    3.983 --    11 C    1.408    10 C    1.400     1 P    1.007
                            14 C    0.108
    10   6 C    3.992 --    12 C    1.449     9 C    1.400    15 H    0.963
                            13 C    0.110
    11   6 C    3.991 --    13 C    1.443     9 C    1.408    16 H    0.965
                            12 C    0.109
    12   6 C    3.993 --    10 C    1.449    14 C    1.433    17 H    0.970
                            11 C    0.109
    13   6 C    3.992 --    11 C    1.443    14 C    1.440    18 H    0.970
                            10 C    0.110
    14   6 C    3.990 --    13 C    1.440    12 C    1.433    19 H    0.971
                             9 C    0.108
    15   1 H    0.999 --    10 C    0.963
    16   1 H    0.998 --    11 C    0.965
    17   1 H    0.999 --    12 C    0.970
    18   1 H    0.999 --    13 C    0.970
    19   1 H    0.998 --    14 C    0.971
    20   6 C    3.995 --     1 P    1.025    23 C    1.016    21 H    0.959
                            22 H    0.954
    21   1 H    0.998 --    20 C    0.959
    22   1 H    0.998 --    20 C    0.954
    23   6 C    3.996 --    20 C    1.016    24 H    0.985    26 H    0.985
                            25 H    0.983
    24   1 H    0.998 --    23 C    0.985
    25   1 H    0.999 --    23 C    0.983
    26   1 H    0.999 --    23 C    0.985
 ---------------------------------------------------------------------------

molecular dipole:
                 x           y           z       tot (Debye)
 q only:        0.219       0.074       0.128
   full:        0.602      -0.040       0.213       1.626

 projected vibrational frequencies (cm⁻¹)
eigval :       -0.00    -0.00    -0.00     0.00     0.00     0.00
eigval :       31.24    72.74    79.54    98.35   120.36   177.30
eigval :      204.45   217.64   244.68   265.35   271.81   326.12
eigval :      363.04   441.72   455.74   585.97   655.82   660.34
eigval :      686.28   702.74   734.07   741.05   789.12   875.12
eigval :      899.27   927.02   932.52   969.48   971.42  1010.22
eigval :     1014.73  1018.08  1071.14  1073.69  1083.06  1118.30
eigval :     1120.54  1181.61  1198.56  1222.56  1231.59  1252.22
eigval :     1255.33  1278.15  1315.33  1408.14  1411.35  1423.66
eigval :     1444.35  1451.27  1457.58  1494.74  1497.78  1502.79
eigval :     1507.74  1579.73  1589.46  2925.66  2935.76  2945.69
eigval :     2949.88  3011.80  3012.70  3025.93  3028.51  3033.11
eigval :     3036.46  3063.84  3065.77  3074.04  3079.02  3088.16

   temp. (K)  partition function   enthalpy   heat capacity  entropy
                                   cal/mol     cal/K/mol   cal/K/mol   J/K/mol
 298.15  VIB  0.161E+05             6200.633     39.650     38.217
         ROT  0.124E+07              888.752      2.981     30.865
         INT  0.200E+11             7089.385     42.631     69.082
         TR   0.207E+28             1481.254      4.968     41.214
         TOT                        8570.6394    47.5990   110.2960   461.4785

       T/K    H(0)-H(T)+PV         H(T)/Eh          T*S/Eh         G(T)/Eh
   ------------------------------------------------------------------------
    298.15    0.136582E-01    0.232340E+00    0.524052E-01    0.179935E+00
   ------------------------------------------------------------------------

         :::::::::::::::::::::::::::::::::::::::::::::::::::::
         ::                  THERMODYNAMIC                  ::
         :::::::::::::::::::::::::::::::::::::::::::::::::::::
         :: total free energy         -31.374744160905 Eh   ::
         ::.................................................::
         :: total energy              -31.554679257507 Eh   ::
         :: zero point energy           0.218682108084 Eh   ::
         :: G(RRHO) w/o ZPVE           -0.038747011481 Eh   ::
         :: G(RRHO) contrib.            0.179935096603 Eh   ::
         :::::::::::::::::::::::::::::::::::::::::::::::::::::

           -------------------------------------------------
          | TOTAL ENERGY              -31.554679257507 Eh   |
          | TOTAL ENTHALPY            -31.322338966141 Eh   |
          | TOTAL FREE ENERGY         -31.374744160905 Eh   |
          | GRADIENT NORM               0.000023665884 Eh/α |
          | HOMO-LUMO GAP               3.658675504970 eV   |
           -------------------------------------------------

 * finished run on 2025/07/14 at 11:28:26.000
