   * xtb version 6.7.0 (08769fc) compiled by 'albert@albert-system' on 2024-03-04

   ID    Z sym.   atoms
    1   15 P      1
    2    6 C      2, 5, 9-14, 20, 23
    3    1 H      3, 4, 6-8, 15-19, 21, 22, 24-26

          program call               : /home/minenky/programs/xtb/xtb-dist/bin/xtb m1_00_PEt2Ph-PBE0-D3-TZ-uniMM_55.xyz --charge 0 --T --ohess extreme --cycles 5000 --acc 0.01 --iterations 5000
          :  Hamiltonian                  GFN2-xTB          :
 * total energy  :   -31.5407954 Eh     change       -0.2842171E-13 Eh
 * total energy  :   -31.5493863 Eh     change       -0.8590925E-02 Eh
 * total energy  :   -31.5523856 Eh     change       -0.2999260E-02 Eh
 * total energy  :   -31.5540059 Eh     change       -0.1620305E-02 Eh
 * total energy  :   -31.5546041 Eh     change       -0.5981788E-03 Eh
 * total energy  :   -31.5548216 Eh     change       -0.2175876E-03 Eh
 * total energy  :   -31.5549297 Eh     change       -0.1080304E-03 Eh
 * total energy  :   -31.5550208 Eh     change       -0.9113539E-04 Eh
 * total energy  :   -31.5551135 Eh     change       -0.9272108E-04 Eh
 * total energy  :   -31.5551742 Eh     change       -0.6071742E-04 Eh
 * total energy  :   -31.5556672 Eh     change       -0.2153723E-06 Eh
 * total energy  :   -31.5556675 Eh     change       -0.2899396E-06 Eh
 * total energy  :   -31.5556677 Eh     change       -0.2078503E-06 Eh
 * total energy  :   -31.5556679 Eh     change       -0.1286513E-06 Eh
 * total energy  :   -31.5556680 Eh     change       -0.1045694E-06 Eh
 * total energy  :   -31.5556681 Eh     change       -0.9528746E-07 Eh
 * total energy  :   -31.5556681 Eh     change       -0.7032138E-07 Eh
 * total energy  :   -31.5556682 Eh     change       -0.1311538E-07 Eh
 * total energy  :   -31.5556682 Eh     change       -0.4352610E-07 Eh
   *** GEOMETRY OPTIMIZATION CONVERGED AFTER 52 ITERATIONS ***

 final structure:
================
26
 xtb: 6.7.0 (08769fc)
P            1.90110804518237       -0.28476033452386       -3.02343062429303
C            0.31997251544820       -0.81647862522716       -2.17922454819574
H            0.15134792702825       -0.09566844175889       -1.37423289602600
H           -0.48105840084802       -0.67592464473852       -2.91093611084151
C            0.28567925400227       -2.23155674284322       -1.61862401598818
H            1.12510135683323       -2.40024374168043       -0.94627473639451
H            0.32243694311666       -2.97241082725686       -2.41332205947834
H           -0.63636610276828       -2.38398789522581       -1.05945096608765
C            3.06871532503979       -0.75084577666882       -1.68505135924154
C            4.00376530762215       -1.77634029848730       -1.74215012242873
C            3.02914688372646        0.05645850655660       -0.54947228017095
C            4.85268051213215       -2.00889627596668       -0.67314468021511
C            3.87167233483879       -0.17936279745881        0.51879787849745
C            4.78631037637255       -1.21876983119839        0.46062459418933
H            4.08064781853827       -2.40620071665931       -2.61520238100338
H            2.32508852048751        0.87730662430937       -0.51307748150307
H            5.57115596517114       -2.81464372492421       -0.72829598780663
H            3.82151256122523        0.44964430182256        1.39603270829384
H            5.44907132898818       -1.40651187224497        1.29266645747782
C            2.07966040165294       -1.68589022030026       -4.23903553719898
H            2.23238283704446       -2.63649615305926       -3.72359236091016
H            1.13004500465270       -1.74147878472506       -4.77993876738929
C            3.20997100143957       -1.41105157478816       -5.22426790616492
H            4.16034140173340       -1.29650145277971       -4.70632552522534
H            3.01598451863108       -0.49050690702832       -5.77093207460171
H            3.30248636270892       -2.22572979314483       -5.94127121729407

          :  Hamiltonian                  GFN2-xTB          :
         :: gradient norm              0.000028669291 Eh/a0 ::
         :: HOMO-LUMO gap              3.648952281396 eV    ::
         :: SCC energy               -32.076677732928 Eh    ::
         :: -> dispersion             -0.024330150409 Eh    ::
         :: repulsion energy           0.521009535599 Eh    ::

    * Orbital Energies and Occupations

         #    Occupation            Energy/Eh            Energy/eV
      -------------------------------------------------------------
         1        2.0000           -0.6587846             -17.9264
       ...           ...                  ...                  ...
        18        2.0000           -0.4754074             -12.9365
        19        2.0000           -0.4741779             -12.9030
        20        2.0000           -0.4670890             -12.7101
        21        2.0000           -0.4610201             -12.5450
        22        2.0000           -0.4564686             -12.4211
        23        2.0000           -0.4434635             -12.0673
        24        2.0000           -0.4381840             -11.9236
        25        2.0000           -0.4239659             -11.5367
        26        2.0000           -0.4162750             -11.3274
        27        2.0000           -0.4071727             -11.0797
        28        2.0000           -0.4029367             -10.9645
        29        2.0000           -0.3995687             -10.8728
        30        2.0000           -0.3641165              -9.9081 (HOMO)
        31                         -0.2300200              -6.2592 (LUMO)
        32                         -0.2215912              -6.0298
        33                         -0.1546803              -4.2091
        34                         -0.1502611              -4.0888
        35                         -0.0932188              -2.5366
        36                          0.0038561               0.1049
        37                          0.0490483               1.3347
        38                          0.0991084               2.6969
        39                          0.1125845               3.0636
        40                          0.1210440               3.2938
        41                          0.1306756               3.5559
       ...                                ...                  ...
        64                          0.7771786              21.1481
      -------------------------------------------------------------
                  HL-Gap            0.1340965 Eh            3.6490 eV

     #   Z          covCN         q      C6AA      α(0)
     1  15 P        3.030    -0.114   165.414    23.105
     2   6 C        3.747    -0.046    21.461     6.608
     3   1 H        0.926     0.042     2.422     2.434
     4   1 H        0.926     0.040     2.450     2.448
     5   6 C        3.780    -0.096    22.347     6.734
     6   1 H        0.925     0.038     2.472     2.459
     7   1 H        0.925     0.037     2.487     2.466
     8   1 H        0.925     0.033     2.540     2.492
     9   6 C        2.915     0.012    27.743     8.637
    10   6 C        2.956    -0.033    28.819     8.805
    11   6 C        3.033    -0.030    28.718     8.790
    12   6 C        2.920    -0.032    28.787     8.798
    13   6 C        2.918    -0.030    28.749     8.793
    14   6 C        2.920    -0.031    28.775     8.797
    15   1 H        0.926     0.036     2.506     2.475
    16   1 H        0.925     0.035     2.523     2.484
    17   1 H        0.926     0.027     2.629     2.535
    18   1 H        0.926     0.029     2.606     2.525
    19   1 H        0.926     0.028     2.617     2.530
    20   6 C        3.748    -0.046    21.455     6.607
    21   1 H        0.925     0.046     2.368     2.407
    22   1 H        0.926     0.040     2.446     2.446
    23   6 C        3.821    -0.098    22.342     6.727
    24   1 H        0.925     0.039     2.464     2.455
    25   1 H        0.925     0.041     2.434     2.440
    26   1 H        0.925     0.031     2.569     2.507

Wiberg/Mayer (AO) data.
largest (>0.10) Wiberg bond orders for each atom

     #   Z sym  total        # sym  WBO       # sym  WBO       # sym  WBO
 ---------------------------------------------------------------------------
     1  15 P    3.374 --    20 C    1.030     9 C    1.018     2 C    1.012
     2   6 C    3.994 --     1 P    1.012     5 C    1.012     4 H    0.957
                             3 H    0.956
     3   1 H    0.998 --     2 C    0.956
     4   1 H    0.998 --     2 C    0.957
     5   6 C    3.997 --     2 C    1.012     7 H    0.985     8 H    0.983
                             6 H    0.983
     6   1 H    0.999 --     5 C    0.983
     7   1 H    0.999 --     5 C    0.985
     8   1 H    0.999 --     5 C    0.983
     9   6 C    3.982 --    10 C    1.404    11 C    1.389     1 P    1.018
                            14 C    0.106
    10   6 C    3.993 --    12 C    1.439     9 C    1.404    15 H    0.961
                            13 C    0.107
    11   6 C    3.992 --    13 C    1.457     9 C    1.389    16 H    0.962
                            12 C    0.110
    12   6 C    3.993 --    14 C    1.442    10 C    1.439    17 H    0.970
                            11 C    0.110
    13   6 C    3.991 --    11 C    1.457    14 C    1.428    18 H    0.970
                            10 C    0.107
    14   6 C    3.992 --    12 C    1.442    13 C    1.428    19 H    0.971
                             9 C    0.106
    15   1 H    0.999 --    10 C    0.961
    16   1 H    0.999 --    11 C    0.962
    17   1 H    0.999 --    12 C    0.970
    18   1 H    0.999 --    13 C    0.970
    19   1 H    0.998 --    14 C    0.971
    20   6 C    3.995 --     1 P    1.030    23 C    1.016    22 H    0.956
                            21 H    0.949
    21   1 H    0.998 --    20 C    0.949
    22   1 H    0.998 --    20 C    0.956
    23   6 C    3.997 --    20 C    1.016    25 H    0.985    26 H    0.985
                            24 H    0.983
    24   1 H    0.998 --    23 C    0.983
    25   1 H    0.998 --    23 C    0.985
    26   1 H    0.999 --    23 C    0.985
 ---------------------------------------------------------------------------

molecular dipole:
                 x           y           z       tot (Debye)
 q only:       -0.140      -0.285      -0.025
   full:       -0.144      -0.625       0.128       1.662

 projected vibrational frequencies (cm⁻¹)
eigval :       -0.00     0.00     0.00     0.00     0.00     0.00
eigval :       25.13    64.75    85.49   113.42   161.65   170.64
eigval :      201.60   222.25   248.19   263.13   314.14   361.46
eigval :      366.39   392.82   473.34   585.85   648.61   659.31
eigval :      679.17   690.26   736.67   760.59   769.42   872.83
eigval :      896.03   925.81   931.59   967.53   982.27   995.06
eigval :     1013.53  1017.26  1063.79  1077.65  1084.88  1115.17
eigval :     1123.40  1181.75  1203.82  1222.78  1230.74  1250.49
eigval :     1268.40  1280.30  1317.25  1407.89  1412.81  1421.47
eigval :     1449.03  1451.46  1461.65  1496.50  1499.47  1505.02
eigval :     1506.35  1578.14  1589.28  2936.24  2941.29  2951.12
eigval :     2955.55  3011.79  3012.32  3023.57  3025.41  3034.18
eigval :     3041.13  3054.76  3067.47  3074.39  3086.74  3093.59

   temp. (K)  partition function   enthalpy   heat capacity  entropy
                                   cal/mol     cal/K/mol   cal/K/mol   J/K/mol
 298.15  VIB  0.141E+05             6118.206     39.488     37.308
         ROT  0.115E+07              888.752      2.981     30.720
         INT  0.163E+11             7006.958     42.469     68.028
         TR   0.207E+28             1481.254      4.968     41.214
         TOT                        8488.2123    47.4372   109.2421   457.0687

       T/K    H(0)-H(T)+PV         H(T)/Eh          T*S/Eh         G(T)/Eh
   ------------------------------------------------------------------------
    298.15    0.135268E-01    0.232471E+00    0.519044E-01    0.180566E+00
   ------------------------------------------------------------------------

         :::::::::::::::::::::::::::::::::::::::::::::::::::::
         ::                  THERMODYNAMIC                  ::
         :::::::::::::::::::::::::::::::::::::::::::::::::::::
         :: total free energy         -31.375102019678 Eh   ::
         ::.................................................::
         :: total energy              -31.555668197330 Eh   ::
         :: zero point energy           0.218943773814 Eh   ::
         :: G(RRHO) w/o ZPVE           -0.038377596162 Eh   ::
         :: G(RRHO) contrib.            0.180566177651 Eh   ::
         :::::::::::::::::::::::::::::::::::::::::::::::::::::

           -------------------------------------------------
          | TOTAL ENERGY              -31.555668197330 Eh   |
          | TOTAL ENTHALPY            -31.323197596270 Eh   |
          | TOTAL FREE ENERGY         -31.375102019678 Eh   |
          | GRADIENT NORM               0.000028668913 Eh/α |
          | HOMO-LUMO GAP               3.648952324830 eV   |
           -------------------------------------------------

 * finished run on 2025/07/14 at 11:35:14.880
