   * xtb version 6.7.0 (08769fc) compiled by 'albert@albert-system' on 2024-03-04

   ID    Z sym.   atoms
    1   15 P      1
    2    6 C      2, 5, 9-14, 20, 23
    3    1 H      3, 4, 6-8, 15-19, 21, 22, 24-26

          program call               : /home/minenky/programs/xtb/xtb-dist/bin/xtb m1_00_PEt2Ph-PBE0-D3-TZ-uniMM_41.xyz --charge 0 --T --ohess extreme --cycles 5000 --acc 0.01 --iterations 5000
          :  Hamiltonian                  GFN2-xTB          :
 * total energy  :   -31.5394735 Eh     change       -0.7815970E-13 Eh
 * total energy  :   -31.5452569 Eh     change       -0.5783378E-02 Eh
 * total energy  :   -31.5469168 Eh     change       -0.1659916E-02 Eh
 * total energy  :   -31.5475343 Eh     change       -0.6174467E-03 Eh
 * total energy  :   -31.5476914 Eh     change       -0.1571133E-03 Eh
 * total energy  :   -31.5477618 Eh     change       -0.7047365E-04 Eh
 * total energy  :   -31.5478326 Eh     change       -0.7077070E-04 Eh
 * total energy  :   -31.5478869 Eh     change       -0.5428108E-04 Eh
 * total energy  :   -31.5479842 Eh     change       -0.9731427E-04 Eh
 * total energy  :   -31.5480866 Eh     change       -0.1023708E-03 Eh
 * total energy  :   -31.5559270 Eh     change       -0.2771820E-06 Eh
 * total energy  :   -31.5559272 Eh     change       -0.1921166E-06 Eh
 * total energy  :   -31.5559274 Eh     change       -0.1804003E-06 Eh
 * total energy  :   -31.5559276 Eh     change       -0.1808577E-06 Eh
 * total energy  :   -31.5559278 Eh     change       -0.2198979E-06 Eh
 * total energy  :   -31.5559280 Eh     change       -0.2096511E-06 Eh
 * total energy  :   -31.5559282 Eh     change       -0.1636246E-06 Eh
 * total energy  :   -31.5559283 Eh     change       -0.1262267E-06 Eh
 * total energy  :   -31.5559283 Eh     change       -0.1063487E-08 Eh
   *** GEOMETRY OPTIMIZATION CONVERGED AFTER 94 ITERATIONS ***

 final structure:
================
26
 xtb: 6.7.0 (08769fc)
P            1.64225699529229        0.45274588133934       -3.02195621262687
C            2.44124835037809        0.66738699168115       -4.69288761115939
H            2.01747336242262       -0.02968188080765       -5.41949134919839
H            2.20914415471009        1.68669947735717       -5.01546566482366
C            3.95355557230243        0.50590434515742       -4.60513062099428
H            4.22450254148925       -0.51697075956255       -4.35300757817107
H            4.36167193313997        1.16469807444895       -3.84075813829039
H            4.41841566356522        0.75527677178935       -5.55786177880853
C           -0.13081268526273        0.36306702982475       -3.48629955933564
C           -0.65121050136377        0.77577003834137       -4.70710073109464
C           -1.01228423740832       -0.06630096822566       -2.49562182961013
C           -2.01413065598290        0.71641956395955       -4.94359995798574
C           -2.37117095182978       -0.12912048737132       -2.73337091821848
C           -2.87684099601313        0.25758871190208       -3.96408271487111
H           -0.00027745906912        1.14676486783565       -5.48395540575454
H           -0.62158891860224       -0.35185068696201       -1.52823817799576
H           -2.40350964839415        1.03242684074536       -5.90109059456833
H           -3.03940702013514       -0.47422687558860       -1.95740311628957
H           -3.93902079037376        0.20999587760736       -4.15443781235929
C            1.93348899397498       -1.37080247733510       -2.72900785792948
H            2.99764924043189       -1.48503546543845       -2.50502704947265
H            1.39010057835478       -1.61473810836497       -1.81199293524154
C            1.51558750045445       -2.31940630128528       -3.84376967198371
H            2.13794782332704       -2.19358658975144       -4.72632770947017
H            0.47707685284429       -2.15092389077034       -4.12410856050126
H            1.61628530174635       -3.35047898052788       -3.50763344324537

          :  Hamiltonian                  GFN2-xTB          :
         :: gradient norm              0.000025133931 Eh/a0 ::
         :: HOMO-LUMO gap              3.637665102863 eV    ::
         :: SCC energy               -32.077063300879 Eh    ::
         :: -> dispersion             -0.024357653873 Eh    ::
         :: repulsion energy           0.521135007230 Eh    ::

    * Orbital Energies and Occupations

         #    Occupation            Energy/Eh            Energy/eV
      -------------------------------------------------------------
         1        2.0000           -0.6587483             -17.9255
       ...           ...                  ...                  ...
        18        2.0000           -0.4770604             -12.9815
        19        2.0000           -0.4740128             -12.8985
        20        2.0000           -0.4690027             -12.7622
        21        2.0000           -0.4616230             -12.5614
        22        2.0000           -0.4527121             -12.3189
        23        2.0000           -0.4451125             -12.1121
        24        2.0000           -0.4393564             -11.9555
        25        2.0000           -0.4246731             -11.5559
        26        2.0000           -0.4143929             -11.2762
        27        2.0000           -0.4077968             -11.0967
        28        2.0000           -0.4028169             -10.9612
        29        2.0000           -0.4006813             -10.9031
        30        2.0000           -0.3635572              -9.8929 (HOMO)
        31                         -0.2298755              -6.2552 (LUMO)
        32                         -0.2215382              -6.0284
        33                         -0.1544277              -4.2022
        34                         -0.1499140              -4.0794
        35                         -0.0933299              -2.5396
        36                          0.0104729               0.2850
        37                          0.0442054               1.2029
        38                          0.1062533               2.8913
        39                          0.1121052               3.0505
        40                          0.1164584               3.1690
        41                          0.1320078               3.5921
       ...                                ...                  ...
        64                          0.7999239              21.7670
      -------------------------------------------------------------
                  HL-Gap            0.1336817 Eh            3.6377 eV

     #   Z          covCN         q      C6AA      α(0)
     1  15 P        3.020    -0.113   165.371    23.102
     2   6 C        3.748    -0.045    21.450     6.606
     3   1 H        0.925     0.047     2.362     2.403
     4   1 H        0.926     0.041     2.441     2.443
     5   6 C        3.819    -0.097    22.332     6.725
     6   1 H        0.925     0.037     2.489     2.467
     7   1 H        0.925     0.041     2.431     2.438
     8   1 H        0.925     0.032     2.556     2.500
     9   6 C        2.915     0.010    27.791     8.645
    10   6 C        2.961    -0.034    28.832     8.807
    11   6 C        3.021    -0.030    28.726     8.792
    12   6 C        2.919    -0.031    28.768     8.795
    13   6 C        2.918    -0.030    28.753     8.793
    14   6 C        2.920    -0.031    28.776     8.797
    15   1 H        0.926     0.033     2.549     2.497
    16   1 H        0.925     0.034     2.532     2.488
    17   1 H        0.926     0.028     2.617     2.530
    18   1 H        0.926     0.029     2.604     2.523
    19   1 H        0.926     0.028     2.611     2.527
    20   6 C        3.748    -0.044    21.428     6.602
    21   1 H        0.926     0.041     2.439     2.442
    22   1 H        0.926     0.042     2.423     2.434
    23   6 C        3.780    -0.094    22.320     6.730
    24   1 H        0.925     0.038     2.479     2.462
    25   1 H        0.925     0.037     2.483     2.464
    26   1 H        0.925     0.032     2.560     2.502

Wiberg/Mayer (AO) data.
largest (>0.10) Wiberg bond orders for each atom

     #   Z sym  total        # sym  WBO       # sym  WBO       # sym  WBO
 ---------------------------------------------------------------------------
     1  15 P    3.378 --     2 C    1.028     9 C    1.019    20 C    1.014
     2   6 C    3.995 --     1 P    1.028     5 C    1.015     4 H    0.956
                             3 H    0.951
     3   1 H    0.998 --     2 C    0.951
     4   1 H    0.998 --     2 C    0.956
     5   6 C    3.996 --     2 C    1.015     8 H    0.985     7 H    0.984
                             6 H    0.984
     6   1 H    0.999 --     5 C    0.984
     7   1 H    0.998 --     5 C    0.984
     8   1 H    0.999 --     5 C    0.985
     9   6 C    3.982 --    10 C    1.402    11 C    1.390     1 P    1.019
                            14 C    0.106
    10   6 C    3.993 --    12 C    1.441     9 C    1.402    15 H    0.963
                            13 C    0.107
    11   6 C    3.992 --    13 C    1.457     9 C    1.390    16 H    0.962
                            12 C    0.110
    12   6 C    3.993 --    14 C    1.441    10 C    1.441    17 H    0.970
                            11 C    0.110
    13   6 C    3.992 --    11 C    1.457    14 C    1.428    18 H    0.970
                            10 C    0.107
    14   6 C    3.991 --    12 C    1.441    13 C    1.428    19 H    0.971
                             9 C    0.106
    15   1 H    0.999 --    10 C    0.963
    16   1 H    0.999 --    11 C    0.962
    17   1 H    0.999 --    12 C    0.970
    18   1 H    0.999 --    13 C    0.970
    19   1 H    0.998 --    14 C    0.971
    20   6 C    3.994 --     1 P    1.014    23 C    1.012    21 H    0.956
                            22 H    0.954
    21   1 H    0.998 --    20 C    0.956
    22   1 H    0.998 --    20 C    0.954
    23   6 C    3.997 --    20 C    1.012    24 H    0.984    26 H    0.983
                            25 H    0.983
    24   1 H    0.999 --    23 C    0.984
    25   1 H    0.999 --    23 C    0.983
    26   1 H    0.999 --    23 C    0.983
 ---------------------------------------------------------------------------

molecular dipole:
                 x           y           z       tot (Debye)
 q only:        0.139      -0.245      -0.206
   full:        0.018      -0.467      -0.471       1.686

 projected vibrational frequencies (cm⁻¹)
eigval :       -0.00    -0.00    -0.00    -0.00     0.00     0.00
eigval :       27.62    69.99    81.20   127.30   129.35   199.64
eigval :      204.21   227.88   261.41   277.10   283.91   356.78
eigval :      363.07   406.67   472.90   585.96   638.43   657.10
eigval :      683.14   704.71   729.37   746.95   791.34   871.17
eigval :      894.50   925.13   931.19   968.62   974.38   998.59
eigval :     1012.38  1021.95  1065.58  1072.88  1085.86  1115.61
eigval :     1123.29  1181.87  1203.26  1225.69  1227.87  1251.03
eigval :     1266.82  1282.24  1316.96  1408.59  1410.70  1421.74
eigval :     1450.99  1454.97  1461.81  1497.35  1501.02  1504.77
eigval :     1508.52  1577.49  1589.05  2938.97  2942.45  2949.49
eigval :     2960.72  3011.26  3013.25  3023.86  3024.74  3034.34
eigval :     3038.96  3058.52  3068.37  3074.70  3087.07  3094.10

   temp. (K)  partition function   enthalpy   heat capacity  entropy
                                   cal/mol     cal/K/mol   cal/K/mol   J/K/mol
 298.15  VIB  0.119E+05             6093.189     39.516     37.073
         ROT  0.113E+07              888.752      2.981     30.681
         INT  0.135E+11             6981.941     42.497     67.754
         TR   0.207E+28             1481.254      4.968     41.214
         TOT                        8463.1950    47.4647   108.9673   455.9192

       T/K    H(0)-H(T)+PV         H(T)/Eh          T*S/Eh         G(T)/Eh
   ------------------------------------------------------------------------
    298.15    0.134870E-01    0.232534E+00    0.517739E-01    0.180760E+00
   ------------------------------------------------------------------------

         :::::::::::::::::::::::::::::::::::::::::::::::::::::
         ::                  THERMODYNAMIC                  ::
         :::::::::::::::::::::::::::::::::::::::::::::::::::::
         :: total free energy         -31.375167807392 Eh   ::
         ::.................................................::
         :: total energy              -31.555928293649 Eh   ::
         :: zero point energy           0.219047409259 Eh   ::
         :: G(RRHO) w/o ZPVE           -0.038286923002 Eh   ::
         :: G(RRHO) contrib.            0.180760486258 Eh   ::
         :::::::::::::::::::::::::::::::::::::::::::::::::::::

           -------------------------------------------------
          | TOTAL ENERGY              -31.555928293649 Eh   |
          | TOTAL ENTHALPY            -31.323393924633 Eh   |
          | TOTAL FREE ENERGY         -31.375167807392 Eh   |
          | GRADIENT NORM               0.000025134006 Eh/α |
          | HOMO-LUMO GAP               3.637665047250 eV   |
           -------------------------------------------------

 * finished run on 2025/07/14 at 11:32:29.004
