   * xtb version 6.7.0 (08769fc) compiled by 'albert@albert-system' on 2024-03-04

   ID    Z sym.   atoms
    1   15 P      1
    2    6 C      2, 5, 9-14, 20, 23
    3    1 H      3, 4, 6-8, 15-19, 21, 22, 24-26

          program call               : /home/minenky/programs/xtb/xtb-dist/bin/xtb m1_00_PEt2Ph-PBE0-D3-TZ-uniMM_1.xyz --charge 0 --T --ohess extreme --cycles 5000 --acc 0.01 --iterations 5000
          :  Hamiltonian                  GFN2-xTB          :
 * total energy  :   -31.5530387 Eh     change       -0.2202682E-12 Eh
 * total energy  :   -31.5556889 Eh     change       -0.2650244E-02 Eh
 * total energy  :   -31.5560648 Eh     change       -0.3758256E-03 Eh
 * total energy  :   -31.5561790 Eh     change       -0.1142069E-03 Eh
 * total energy  :   -31.5562419 Eh     change       -0.6295778E-04 Eh
 * total energy  :   -31.5562880 Eh     change       -0.4605248E-04 Eh
 * total energy  :   -31.5563566 Eh     change       -0.6860401E-04 Eh
 * total energy  :   -31.5563792 Eh     change       -0.2256006E-04 Eh
 * total energy  :   -31.5564154 Eh     change       -0.3624948E-04 Eh
 * total energy  :   -31.5564343 Eh     change       -0.1885162E-04 Eh
 * total energy  :   -31.5570209 Eh     change       -0.2346339E-07 Eh
 * total energy  :   -31.5570210 Eh     change       -0.1562459E-06 Eh
 * total energy  :   -31.5570212 Eh     change       -0.1435054E-06 Eh
 * total energy  :   -31.5570212 Eh     change       -0.9740866E-08 Eh
 * total energy  :   -31.5570213 Eh     change       -0.9571918E-07 Eh
 * total energy  :   -31.5570213 Eh     change       -0.6595903E-07 Eh
 * total energy  :   -31.5570214 Eh     change       -0.5029220E-07 Eh
 * total energy  :   -31.5570214 Eh     change       -0.5231249E-07 Eh
 * total energy  :   -31.5570215 Eh     change       -0.4681706E-07 Eh
   *** GEOMETRY OPTIMIZATION CONVERGED AFTER 61 ITERATIONS ***

 final structure:
================
26
 xtb: 6.7.0 (08769fc)
P            1.52874518851253       -0.18808137598907       -2.85863767248223
C            1.83677639289843       -0.18915592200438       -4.69946190702863
H            0.92651105012230        0.19389200614568       -5.17011022425207
H            2.65776013506438        0.48701182476142       -4.95170014427290
C            2.13034692151794       -1.59623955029573       -5.20092506447939
H            1.31218346813613       -2.26801848639558       -4.94863365670161
H            3.03966327849168       -1.98162646297068       -4.74204731852327
H            2.25997953300711       -1.60057201305801       -6.28198081451144
C            3.22042805225257       -0.61411554864276       -2.26806249255049
C            3.31660632944762       -1.63079450345724       -1.32441507893337
C            4.38252206775565        0.01265916480509       -2.70268015495787
C            4.54682557492009       -2.01596937365881       -0.82242046374027
C            5.61260692052655       -0.37201683635183       -2.20217269549345
C            5.69830704589946       -1.38584503950848       -1.26182547858076
H            2.41193370389051       -2.11784872265111       -0.98719264346980
H            4.33658697336857        0.80592612079839       -3.43560195866461
H            4.60832125778770       -2.80715351084536       -0.08909231579278
H            6.51054440080115        0.12138128577429       -2.54688812900234
H            6.66182629430919       -1.68262827807176       -0.87367175876844
C            1.57799569741124        1.65893882858958       -2.59403763537811
H            2.44651909161889        2.09338575381462       -3.09596036243622
H            0.67669515066741        2.06868529154445       -3.05926015189542
C            1.59744100399908        1.99418886248927       -1.10919399422641
H            2.49538176804110        1.59382756145012       -0.64080053427660
H            0.73266578437708        1.56107132425844       -0.61032097275874
H            1.57971691517530        3.07222359947071       -0.95747337682358

          :  Hamiltonian                  GFN2-xTB          :
         :: gradient norm              0.000011829686 Eh/a0 ::
         :: HOMO-LUMO gap              3.636871492823 eV    ::
         :: SCC energy               -32.077695793489 Eh    ::
         :: -> dispersion             -0.024030168749 Eh    ::
         :: repulsion energy           0.520674307385 Eh    ::

    * Orbital Energies and Occupations

         #    Occupation            Energy/Eh            Energy/eV
      -------------------------------------------------------------
         1        2.0000           -0.6581207             -17.9084
       ...           ...                  ...                  ...
        18        2.0000           -0.4773497             -12.9893
        19        2.0000           -0.4746512             -12.9159
        20        2.0000           -0.4704138             -12.8006
        21        2.0000           -0.4563299             -12.4174
        22        2.0000           -0.4561869             -12.4135
        23        2.0000           -0.4422946             -12.0354
        24        2.0000           -0.4364971             -11.8777
        25        2.0000           -0.4232557             -11.5174
        26        2.0000           -0.4194648             -11.4142
        27        2.0000           -0.4052712             -11.0280
        28        2.0000           -0.4045257             -11.0077
        29        2.0000           -0.3970022             -10.8030
        30        2.0000           -0.3672909              -9.9945 (HOMO)
        31                         -0.2336384              -6.3576 (LUMO)
        32                         -0.2230323              -6.0690
        33                         -0.1548878              -4.2147
        34                         -0.1507407              -4.1019
        35                         -0.0928028              -2.5253
        36                          0.0045556               0.1240
        37                          0.0549339               1.4948
        38                          0.0923776               2.5137
        39                          0.1108307               3.0159
        40                          0.1352068               3.6792
        41                          0.1375360               3.7425
       ...                                ...                  ...
        64                          0.7794370              21.2096
      -------------------------------------------------------------
                  HL-Gap            0.1336526 Eh            3.6369 eV

     #   Z          covCN         q      C6AA      α(0)
     1  15 P        3.056    -0.118   165.593    23.117
     2   6 C        3.748    -0.047    21.475     6.610
     3   1 H        0.926     0.038     2.469     2.457
     4   1 H        0.925     0.042     2.420     2.433
     5   6 C        3.821    -0.096    22.316     6.723
     6   1 H        0.925     0.042     2.429     2.437
     7   1 H        0.925     0.036     2.501     2.473
     8   1 H        0.925     0.033     2.546     2.495
     9   6 C        2.916     0.011    27.768     8.641
    10   6 C        3.016    -0.030    28.728     8.792
    11   6 C        2.961    -0.027    28.681     8.784
    12   6 C        2.918    -0.030    28.749     8.793
    13   6 C        2.919    -0.031    28.784     8.798
    14   6 C        2.920    -0.029    28.734     8.790
    15   1 H        0.925     0.040     2.451     2.448
    16   1 H        0.926     0.032     2.564     2.504
    17   1 H        0.926     0.030     2.588     2.516
    18   1 H        0.926     0.028     2.619     2.531
    19   1 H        0.926     0.029     2.603     2.523
    20   6 C        3.748    -0.047    21.475     6.610
    21   1 H        0.925     0.042     2.418     2.432
    22   1 H        0.926     0.039     2.468     2.457
    23   6 C        3.821    -0.096    22.317     6.723
    24   1 H        0.925     0.036     2.501     2.473
    25   1 H        0.925     0.042     2.428     2.437
    26   1 H        0.925     0.033     2.546     2.495

Wiberg/Mayer (AO) data.
largest (>0.10) Wiberg bond orders for each atom

     #   Z sym  total        # sym  WBO       # sym  WBO       # sym  WBO
 ---------------------------------------------------------------------------
     1  15 P    3.349 --     2 C    1.025    20 C    1.024     9 C    1.007
     2   6 C    3.993 --     1 P    1.025     5 C    1.017     3 H    0.958
                             4 H    0.951
     3   1 H    0.998 --     2 C    0.958
     4   1 H    0.998 --     2 C    0.951
     5   6 C    3.995 --     2 C    1.017     6 H    0.985     8 H    0.985
                             7 H    0.984
     6   1 H    0.998 --     5 C    0.985
     7   1 H    0.999 --     5 C    0.984
     8   1 H    0.999 --     5 C    0.985
     9   6 C    3.983 --    10 C    1.408    11 C    1.400     1 P    1.007
                            14 C    0.108
    10   6 C    3.992 --    12 C    1.443     9 C    1.408    15 H    0.964
                            13 C    0.108
    11   6 C    3.993 --    13 C    1.450     9 C    1.400    16 H    0.961
                            12 C    0.111
    12   6 C    3.992 --    10 C    1.443    14 C    1.441    17 H    0.970
                            11 C    0.111
    13   6 C    3.993 --    11 C    1.450    14 C    1.432    18 H    0.970
                            10 C    0.108
    14   6 C    3.985 --    12 C    1.441    13 C    1.432    19 H    0.971
                             9 C    0.108
    15   1 H    0.998 --    10 C    0.964
    16   1 H    0.999 --    11 C    0.961
    17   1 H    0.999 --    12 C    0.970
    18   1 H    0.999 --    13 C    0.970
    19   1 H    0.999 --    14 C    0.971
    20   6 C    3.993 --     1 P    1.024    23 C    1.017    22 H    0.958
                            21 H    0.951
    21   1 H    0.998 --    20 C    0.951
    22   1 H    0.998 --    20 C    0.958
    23   6 C    3.995 --    20 C    1.017    25 H    0.985    26 H    0.984
                            24 H    0.984
    24   1 H    0.999 --    23 C    0.984
    25   1 H    0.998 --    23 C    0.985
    26   1 H    0.999 --    23 C    0.984
 ---------------------------------------------------------------------------

molecular dipole:
                 x           y           z       tot (Debye)
 q only:        0.133       0.158      -0.120
   full:        0.463       0.363      -0.258       1.633

 projected vibrational frequencies (cm⁻¹)
eigval :       -0.00    -0.00    -0.00     0.00     0.00     0.00
eigval :       17.87    50.26    64.98   121.07   122.34   164.24
eigval :      199.49   213.93   232.44   295.26   318.02   320.86
eigval :      363.62   401.32   450.36   586.08   657.50   668.70
eigval :      687.39   704.79   735.14   753.35   780.19   875.00
eigval :      899.15   926.85   932.97   969.37   975.73   998.51
eigval :     1003.56  1020.03  1062.83  1082.80  1085.11  1116.95
eigval :     1121.52  1181.70  1198.85  1217.01  1229.73  1244.56
eigval :     1255.26  1278.93  1315.80  1410.37  1411.07  1423.54
eigval :     1442.59  1449.90  1458.04  1497.21  1497.29  1501.64
eigval :     1501.85  1580.00  1589.61  2931.56  2936.89  2944.80
eigval :     2951.22  3013.89  3014.38  3019.41  3019.50  3029.52
eigval :     3030.62  3061.33  3063.70  3070.74  3076.96  3087.70

   temp. (K)  partition function   enthalpy   heat capacity  entropy
                                   cal/mol     cal/K/mol   cal/K/mol   J/K/mol
 298.15  VIB  0.381E+05             6235.715     39.141     38.707
         ROT  0.118E+07              888.752      2.981     30.763
         INT  0.449E+11             7124.467     42.122     69.470
         TR   0.207E+28             1481.254      4.968     41.214
         TOT                        8605.7209    47.0905   110.6834   463.0993

       T/K    H(0)-H(T)+PV         H(T)/Eh          T*S/Eh         G(T)/Eh
   ------------------------------------------------------------------------
    298.15    0.137141E-01    0.232229E+00    0.525892E-01    0.179639E+00
   ------------------------------------------------------------------------

         :::::::::::::::::::::::::::::::::::::::::::::::::::::
         ::                  THERMODYNAMIC                  ::
         :::::::::::::::::::::::::::::::::::::::::::::::::::::
         :: total free energy         -31.377382214734 Eh   ::
         ::.................................................::
         :: total energy              -31.557021486104 Eh   ::
         :: zero point energy           0.218514427847 Eh   ::
         :: G(RRHO) w/o ZPVE           -0.038875156477 Eh   ::
         :: G(RRHO) contrib.            0.179639271370 Eh   ::
         :::::::::::::::::::::::::::::::::::::::::::::::::::::

           -------------------------------------------------
          | TOTAL ENERGY              -31.557021486104 Eh   |
          | TOTAL ENTHALPY            -31.324792969033 Eh   |
          | TOTAL FREE ENERGY         -31.377382214734 Eh   |
          | GRADIENT NORM               0.000011829996 Eh/α |
          | HOMO-LUMO GAP               3.636871499588 eV   |
           -------------------------------------------------

 * finished run on 2025/07/14 at 11:26:12.211
