   * xtb version 6.7.0 (08769fc) compiled by 'albert@albert-system' on 2024-03-04

   ID    Z sym.   atoms
    1   15 P      1
    2    6 C      2, 5, 9-14, 20, 23
    3    1 H      3, 4, 6-8, 15-19, 21, 22, 24-26

          program call               : /home/minenky/programs/xtb/xtb-dist/bin/xtb m1_00_PEt2Ph-PBE0-D3-TZ-uniMM_52.xyz --charge 0 --T --ohess extreme --cycles 5000 --acc 0.01 --iterations 5000
          :  Hamiltonian                  GFN2-xTB          :
 * total energy  :   -31.5390626 Eh     change       -0.2131628E-13 Eh
 * total energy  :   -31.5474601 Eh     change       -0.8397494E-02 Eh
 * total energy  :   -31.5501826 Eh     change       -0.2722487E-02 Eh
 * total energy  :   -31.5517181 Eh     change       -0.1535523E-02 Eh
 * total energy  :   -31.5523409 Eh     change       -0.6227514E-03 Eh
 * total energy  :   -31.5526500 Eh     change       -0.3091590E-03 Eh
 * total energy  :   -31.5528212 Eh     change       -0.1711532E-03 Eh
 * total energy  :   -31.5529583 Eh     change       -0.1371282E-03 Eh
 * total energy  :   -31.5530939 Eh     change       -0.1355524E-03 Eh
 * total energy  :   -31.5532049 Eh     change       -0.1110593E-03 Eh
 * total energy  :   -31.5561052 Eh     change       -0.1968775E-06 Eh
 * total energy  :   -31.5561054 Eh     change       -0.1859005E-06 Eh
 * total energy  :   -31.5561056 Eh     change       -0.1753347E-06 Eh
 * total energy  :   -31.5561058 Eh     change       -0.1660336E-06 Eh
 * total energy  :   -31.5561059 Eh     change       -0.1570539E-06 Eh
 * total energy  :   -31.5561061 Eh     change       -0.1491986E-06 Eh
 * total energy  :   -31.5561062 Eh     change       -0.1416317E-06 Eh
 * total energy  :   -31.5561064 Eh     change       -0.1350006E-06 Eh
 * total energy  :   -31.5561064 Eh     change       -0.1148113E-08 Eh
   *** GEOMETRY OPTIMIZATION CONVERGED AFTER 260 ITERATIONS ***

 final structure:
================
26
 xtb: 6.7.0 (08769fc)
P            1.72687348773099       -0.49406120750231       -3.17737165273224
C            2.52942503604847        0.91365042380296       -4.10778065321675
H            3.08194428779964        1.55440051258784       -3.41497875174844
H            3.25054929047604        0.45666558215480       -4.79200732330120
C            1.51217289864542        1.72541814163177       -4.89796655185601
H            0.81226782758798        2.22532840122683       -4.23178399930998
H            0.94565162173261        1.07790249791755       -5.56428109176264
H            2.01316898878849        2.48339412937783       -5.49810952978027
C            3.24039611711035       -1.10788534189057       -2.32664202787482
C            4.02838658217918       -0.34144229173102       -1.47561363754185
C            3.60469559383623       -2.42671213964423       -2.57452163069219
C            5.15544217771881       -0.88570985757723       -0.88789476933054
C            4.73397747910815       -2.97107440608980       -1.98976039651549
C            5.51182621206614       -2.19972214628669       -1.14361938010136
H            3.76655324237974        0.68510179475412       -1.26204401111559
H            2.98919154901979       -3.02379511249448       -3.23329807719041
H            5.76022309928727       -0.28170109819195       -0.22612246547893
H            5.00676266983080       -3.99686558146835       -2.19181829573202
H            6.39363601506643       -2.62006806331876       -0.68233047146908
C            0.94421731922486        0.48196668296585       -1.79153203878143
H            1.61354756772510        1.27656034018628       -1.45101778766973
H            0.04871352805310        0.95190701762373       -2.20824341253070
C            0.55174660017253       -0.42756646999523       -0.63548814885327
H            1.43338963825765       -0.89359551239140       -0.19823619516472
H           -0.11139366763154       -1.21742801970005       -0.98321520089060
H            0.03811083778564        0.13749872405276        0.14080650064100

          :  Hamiltonian                  GFN2-xTB          :
         :: gradient norm              0.000027647722 Eh/a0 ::
         :: HOMO-LUMO gap              3.641142475992 eV    ::
         :: SCC energy               -32.076720277274 Eh    ::
         :: -> dispersion             -0.023679346899 Eh    ::
         :: repulsion energy           0.520613921586 Eh    ::

    * Orbital Energies and Occupations

         #    Occupation            Energy/Eh            Energy/eV
      -------------------------------------------------------------
         1        2.0000           -0.6578796             -17.9018
       ...           ...                  ...                  ...
        18        2.0000           -0.4773657             -12.9898
        19        2.0000           -0.4745182             -12.9123
        20        2.0000           -0.4630239             -12.5995
        21        2.0000           -0.4620994             -12.5744
        22        2.0000           -0.4534469             -12.3389
        23        2.0000           -0.4450303             -12.1099
        24        2.0000           -0.4376494             -11.9090
        25        2.0000           -0.4231458             -11.5144
        26        2.0000           -0.4184199             -11.3858
        27        2.0000           -0.4046724             -11.0117
        28        2.0000           -0.4043402             -11.0027
        29        2.0000           -0.3967854             -10.7971
        30        2.0000           -0.3669643              -9.9856 (HOMO)
        31                         -0.2331548              -6.3445 (LUMO)
        32                         -0.2229348              -6.0664
        33                         -0.1564267              -4.2566
        34                         -0.1499018              -4.0790
        35                         -0.0930398              -2.5317
        36                          0.0051727               0.1408
        37                          0.0555016               1.5103
        38                          0.0885706               2.4101
        39                          0.0952272               2.5913
        40                          0.1354586               3.6860
        41                          0.1378570               3.7513
       ...                                ...                  ...
        64                          0.7864122              21.3994
      -------------------------------------------------------------
                  HL-Gap            0.1338095 Eh            3.6411 eV

     #   Z          covCN         q      C6AA      α(0)
     1  15 P        3.045    -0.116   165.503    23.111
     2   6 C        3.748    -0.046    21.470     6.609
     3   1 H        0.925     0.043     2.413     2.429
     4   1 H        0.926     0.038     2.469     2.457
     5   6 C        3.811    -0.098    22.356     6.730
     6   1 H        0.925     0.037     2.492     2.469
     7   1 H        0.925     0.042     2.423     2.434
     8   1 H        0.925     0.034     2.537     2.491
     9   6 C        2.916     0.008    27.844     8.653
    10   6 C        2.960    -0.028    28.710     8.789
    11   6 C        3.017    -0.030    28.737     8.793
    12   6 C        2.919    -0.031    28.781     8.798
    13   6 C        2.918    -0.030    28.740     8.791
    14   6 C        2.920    -0.029    28.732     8.790
    15   1 H        0.926     0.032     2.554     2.499
    16   1 H        0.925     0.040     2.455     2.450
    17   1 H        0.926     0.028     2.612     2.527
    18   1 H        0.926     0.030     2.581     2.512
    19   1 H        0.926     0.029     2.596     2.520
    20   6 C        3.748    -0.045    21.445     6.605
    21   1 H        0.925     0.042     2.428     2.437
    22   1 H        0.926     0.039     2.463     2.454
    23   6 C        3.819    -0.096    22.315     6.723
    24   1 H        0.925     0.036     2.507     2.476
    25   1 H        0.925     0.041     2.436     2.441
    26   1 H        0.925     0.032     2.556     2.500

Wiberg/Mayer (AO) data.
largest (>0.10) Wiberg bond orders for each atom

     #   Z sym  total        # sym  WBO       # sym  WBO       # sym  WBO
 ---------------------------------------------------------------------------
     1  15 P    3.346 --    20 C    1.028     2 C    1.021     9 C    1.006
     2   6 C    3.995 --     1 P    1.021     5 C    1.016     4 H    0.959
                             3 H    0.951
     3   1 H    0.998 --     2 C    0.951
     4   1 H    0.998 --     2 C    0.959
     5   6 C    3.996 --     2 C    1.016     6 H    0.985     7 H    0.985
                             8 H    0.984
     6   1 H    0.999 --     5 C    0.985
     7   1 H    0.998 --     5 C    0.985
     8   1 H    0.998 --     5 C    0.984
     9   6 C    3.983 --    11 C    1.408    10 C    1.400     1 P    1.006
                            14 C    0.108
    10   6 C    3.992 --    12 C    1.449     9 C    1.400    15 H    0.961
                            13 C    0.110
    11   6 C    3.991 --    13 C    1.443     9 C    1.408    16 H    0.964
                            12 C    0.108
    12   6 C    3.993 --    10 C    1.449    14 C    1.433    17 H    0.970
                            11 C    0.108
    13   6 C    3.992 --    11 C    1.443    14 C    1.440    18 H    0.970
                            10 C    0.110
    14   6 C    3.990 --    13 C    1.440    12 C    1.433    19 H    0.971
                             9 C    0.108
    15   1 H    0.999 --    10 C    0.961
    16   1 H    0.998 --    11 C    0.964
    17   1 H    0.999 --    12 C    0.970
    18   1 H    0.999 --    13 C    0.970
    19   1 H    0.998 --    14 C    0.971
    20   6 C    3.994 --     1 P    1.028    23 C    1.016    22 H    0.957
                            21 H    0.950
    21   1 H    0.998 --    20 C    0.950
    22   1 H    0.998 --    20 C    0.957
    23   6 C    3.997 --    20 C    1.016    26 H    0.985    25 H    0.984
                            24 H    0.984
    24   1 H    0.999 --    23 C    0.984
    25   1 H    0.998 --    23 C    0.984
    26   1 H    0.999 --    23 C    0.985
 ---------------------------------------------------------------------------

molecular dipole:
                 x           y           z       tot (Debye)
 q only:        0.055       0.235       0.090
   full:        0.300       0.489       0.295       1.640

 projected vibrational frequencies (cm⁻¹)
eigval :       -0.00    -0.00    -0.00     0.00     0.00     0.00
eigval :       23.36    54.33    71.99    94.20   143.92   167.86
eigval :      203.25   215.84   224.36   265.55   314.53   328.67
eigval :      363.16   425.43   450.74   586.10   655.60   660.21
eigval :      685.93   702.03   739.19   754.36   778.06   874.78
eigval :      898.88   926.61   932.72   968.75   974.85   997.81
eigval :     1013.15  1016.93  1071.43  1076.73  1083.13  1117.56
eigval :     1121.34  1181.66  1199.09  1220.35  1225.51  1250.43
eigval :     1255.57  1278.10  1315.60  1409.21  1411.36  1423.43
eigval :     1446.23  1451.20  1459.06  1497.35  1498.53  1501.90
eigval :     1502.29  1579.87  1589.68  2928.90  2934.30  2946.64
eigval :     2949.75  3013.26  3014.15  3020.28  3026.78  3029.52
eigval :     3033.68  3063.40  3063.95  3072.14  3077.51  3087.91

   temp. (K)  partition function   enthalpy   heat capacity  entropy
                                   cal/mol     cal/K/mol   cal/K/mol   J/K/mol
 298.15  VIB  0.278E+05             6229.385     39.288     38.571
         ROT  0.122E+07              888.752      2.981     30.824
         INT  0.338E+11             7118.137     42.269     69.396
         TR   0.207E+28             1481.254      4.968     41.214
         TOT                        8599.3913    47.2371   110.6095   462.7903

       T/K    H(0)-H(T)+PV         H(T)/Eh          T*S/Eh         G(T)/Eh
   ------------------------------------------------------------------------
    298.15    0.137040E-01    0.232276E+00    0.525542E-01    0.179722E+00
   ------------------------------------------------------------------------

         :::::::::::::::::::::::::::::::::::::::::::::::::::::
         ::                  THERMODYNAMIC                  ::
         :::::::::::::::::::::::::::::::::::::::::::::::::::::
         :: total free energy         -31.376384826245 Eh   ::
         ::.................................................::
         :: total energy              -31.556106355687 Eh   ::
         :: zero point energy           0.218571682529 Eh   ::
         :: G(RRHO) w/o ZPVE           -0.038850153086 Eh   ::
         :: G(RRHO) contrib.            0.179721529443 Eh   ::
         :::::::::::::::::::::::::::::::::::::::::::::::::::::

           -------------------------------------------------
          | TOTAL ENERGY              -31.556106355687 Eh   |
          | TOTAL ENTHALPY            -31.323830670797 Eh   |
          | TOTAL FREE ENERGY         -31.376384826245 Eh   |
          | GRADIENT NORM               0.000027647620 Eh/α |
          | HOMO-LUMO GAP               3.641142418853 eV   |
           -------------------------------------------------

 * finished run on 2025/07/14 at 11:34:40.381
