   * xtb version 6.7.0 (08769fc) compiled by 'albert@albert-system' on 2024-03-04

   ID    Z sym.   atoms
    1   15 P      1
    2    6 C      2, 5, 9-14, 20, 23
    3    1 H      3, 4, 6-8, 15-19, 21, 22, 24-26

          program call               : /home/minenky/programs/xtb/xtb-dist/bin/xtb m1_00_PEt2Ph-PBE0-D3-TZ-uniMM_45.xyz --charge 0 --T --ohess extreme --cycles 5000 --acc 0.01 --iterations 5000
          :  Hamiltonian                  GFN2-xTB          :
 * total energy  :   -31.5393729 Eh     change       -0.2557954E-12 Eh
 * total energy  :   -31.5438479 Eh     change       -0.4475011E-02 Eh
 * total energy  :   -31.5449842 Eh     change       -0.1136237E-02 Eh
 * total energy  :   -31.5454253 Eh     change       -0.4411115E-03 Eh
 * total energy  :   -31.5456239 Eh     change       -0.1986431E-03 Eh
 * total energy  :   -31.5458781 Eh     change       -0.2541593E-03 Eh
 * total energy  :   -31.5462399 Eh     change       -0.3618192E-03 Eh
 * total energy  :   -31.5467962 Eh     change       -0.5562993E-03 Eh
 * total energy  :   -31.5476148 Eh     change       -0.8186234E-03 Eh
 * total energy  :   -31.5485810 Eh     change       -0.9661612E-03 Eh
 * total energy  :   -31.5559215 Eh     change       -0.5644567E-06 Eh
 * total energy  :   -31.5559220 Eh     change       -0.5176557E-06 Eh
 * total energy  :   -31.5559224 Eh     change       -0.4284561E-06 Eh
 * total energy  :   -31.5559228 Eh     change       -0.3846343E-06 Eh
 * total energy  :   -31.5559232 Eh     change       -0.3308319E-06 Eh
 * total energy  :   -31.5559234 Eh     change       -0.2809597E-06 Eh
 * total energy  :   -31.5559237 Eh     change       -0.2844507E-06 Eh
 * total energy  :   -31.5559240 Eh     change       -0.2625192E-06 Eh
 * total energy  :   -31.5559240 Eh     change       -0.2515922E-08 Eh
   *** GEOMETRY OPTIMIZATION CONVERGED AFTER 94 ITERATIONS ***

 final structure:
================
26
 xtb: 6.7.0 (08769fc)
P            1.42196704534596       -0.74183354062594       -2.78448165904442
C            1.75487878875660       -0.38273886432055       -0.98554671755185
H            1.56406222717457        0.66807360959763       -0.75590135257398
H            1.05036999957943       -0.99501975218428       -0.41481064872576
C            3.17696940116965       -0.77130866396589       -0.60134220723142
H            3.90512461360522       -0.13634882792535       -1.10125510494534
H            3.37672747188862       -1.80411255848971       -0.88104159714732
H            3.32109407903792       -0.67212815120212        0.47353441260014
C           -0.18833291634939        0.10486149144248       -3.02455930112989
C           -0.62118746341677        0.25042655924040       -4.34145874178763
C           -1.02746609725843        0.52083467785589       -1.99787821861042
C           -1.83691355692522        0.83941276646340       -4.62796336395850
C           -2.24798351392312        1.10793792772757       -2.28554484269091
C           -2.65356463419373        1.27669382936802       -3.59751751332924
H            0.00735513298781       -0.10620926196135       -5.14636623594337
H           -0.73835099281845        0.39168174125140       -0.96609524254026
H           -2.15279304204131        0.95339434323797       -5.65508624706322
H           -2.88627175423895        1.43489655004531       -1.47686976124719
H           -3.60522349325582        1.73816944665308       -3.81687025391978
C            2.51574626025353        0.53487032269635       -3.60303215541587
H            3.54617269527407        0.19215266599743       -3.47497936190455
H            2.29318037362299        0.47424888256854       -4.67193552245525
C            2.36605914136969        1.97273772358383       -3.12629711394992
H            2.71302172710143        2.08989174145784       -2.10259817668342
H            1.32581700015452        2.28990695148363       -3.17904815102233
H            2.95783250710123        2.63402239000203       -3.75774692172800

          :  Hamiltonian                  GFN2-xTB          :
         :: gradient norm              0.000040882649 Eh/a0 ::
         :: HOMO-LUMO gap              3.638690060478 eV    ::
         :: SCC energy               -32.077062347381 Eh    ::
         :: -> dispersion             -0.024355352830 Eh    ::
         :: repulsion energy           0.521138360677 Eh    ::

    * Orbital Energies and Occupations

         #    Occupation            Energy/Eh            Energy/eV
      -------------------------------------------------------------
         1        2.0000           -0.6587441             -17.9253
       ...           ...                  ...                  ...
        18        2.0000           -0.4770809             -12.9820
        19        2.0000           -0.4740356             -12.8992
        20        2.0000           -0.4689864             -12.7618
        21        2.0000           -0.4616070             -12.5610
        22        2.0000           -0.4527185             -12.3191
        23        2.0000           -0.4451202             -12.1123
        24        2.0000           -0.4393162             -11.9544
        25        2.0000           -0.4246342             -11.5549
        26        2.0000           -0.4144552             -11.2779
        27        2.0000           -0.4077331             -11.0950
        28        2.0000           -0.4028448             -10.9620
        29        2.0000           -0.4006478             -10.9022
        30        2.0000           -0.3636014              -9.8941 (HOMO)
        31                         -0.2298820              -6.2554 (LUMO)
        32                         -0.2215529              -6.0288
        33                         -0.1542898              -4.1984
        34                         -0.1500285              -4.0825
        35                         -0.0933548              -2.5403
        36                          0.0100321               0.2730
        37                          0.0445645               1.2127
        38                          0.1067930               2.9060
        39                          0.1119854               3.0473
        40                          0.1163896               3.1671
        41                          0.1321693               3.5965
       ...                                ...                  ...
        64                          0.8000524              21.7705
      -------------------------------------------------------------
                  HL-Gap            0.1337194 Eh            3.6387 eV

     #   Z          covCN         q      C6AA      α(0)
     1  15 P        3.021    -0.113   165.383    23.103
     2   6 C        3.748    -0.045    21.449     6.606
     3   1 H        0.925     0.047     2.362     2.403
     4   1 H        0.926     0.041     2.440     2.443
     5   6 C        3.819    -0.097    22.332     6.725
     6   1 H        0.925     0.037     2.489     2.467
     7   1 H        0.925     0.041     2.431     2.438
     8   1 H        0.925     0.032     2.556     2.500
     9   6 C        2.915     0.010    27.790     8.645
    10   6 C        3.023    -0.030    28.725     8.791
    11   6 C        2.960    -0.033    28.832     8.807
    12   6 C        2.918    -0.030    28.753     8.793
    13   6 C        2.919    -0.031    28.768     8.796
    14   6 C        2.920    -0.031    28.776     8.797
    15   1 H        0.925     0.034     2.531     2.488
    16   1 H        0.926     0.033     2.549     2.497
    17   1 H        0.926     0.029     2.603     2.523
    18   1 H        0.926     0.028     2.618     2.530
    19   1 H        0.926     0.028     2.611     2.527
    20   6 C        3.748    -0.044    21.427     6.602
    21   1 H        0.926     0.041     2.439     2.442
    22   1 H        0.926     0.042     2.423     2.434
    23   6 C        3.780    -0.094    22.320     6.730
    24   1 H        0.925     0.038     2.479     2.462
    25   1 H        0.925     0.037     2.483     2.464
    26   1 H        0.925     0.032     2.560     2.502

Wiberg/Mayer (AO) data.
largest (>0.10) Wiberg bond orders for each atom

     #   Z sym  total        # sym  WBO       # sym  WBO       # sym  WBO
 ---------------------------------------------------------------------------
     1  15 P    3.377 --     2 C    1.028     9 C    1.019    20 C    1.014
     2   6 C    3.995 --     1 P    1.028     5 C    1.015     4 H    0.956
                             3 H    0.951
     3   1 H    0.998 --     2 C    0.951
     4   1 H    0.998 --     2 C    0.956
     5   6 C    3.996 --     2 C    1.015     8 H    0.985     7 H    0.984
                             6 H    0.984
     6   1 H    0.999 --     5 C    0.984
     7   1 H    0.998 --     5 C    0.984
     8   1 H    0.999 --     5 C    0.985
     9   6 C    3.982 --    11 C    1.402    10 C    1.390     1 P    1.019
                            14 C    0.106
    10   6 C    3.992 --    12 C    1.457     9 C    1.390    15 H    0.962
                            13 C    0.110
    11   6 C    3.993 --    13 C    1.440     9 C    1.402    16 H    0.963
                            12 C    0.107
    12   6 C    3.992 --    10 C    1.457    14 C    1.428    17 H    0.970
                            11 C    0.107
    13   6 C    3.993 --    14 C    1.442    11 C    1.440    18 H    0.970
                            10 C    0.110
    14   6 C    3.992 --    13 C    1.442    12 C    1.428    19 H    0.971
                             9 C    0.106
    15   1 H    0.999 --    10 C    0.962
    16   1 H    0.999 --    11 C    0.963
    17   1 H    0.999 --    12 C    0.970
    18   1 H    0.999 --    13 C    0.970
    19   1 H    0.998 --    14 C    0.971
    20   6 C    3.994 --     1 P    1.014    23 C    1.012    21 H    0.956
                            22 H    0.954
    21   1 H    0.998 --    20 C    0.956
    22   1 H    0.998 --    20 C    0.954
    23   6 C    3.997 --    20 C    1.012    24 H    0.984    25 H    0.983
                            26 H    0.983
    24   1 H    0.999 --    23 C    0.984
    25   1 H    0.999 --    23 C    0.983
    26   1 H    0.999 --    23 C    0.983
 ---------------------------------------------------------------------------

molecular dipole:
                 x           y           z       tot (Debye)
 q only:        0.193       0.256       0.136
   full:        0.136       0.602       0.243       1.686

 projected vibrational frequencies (cm⁻¹)
eigval :       -0.00    -0.00    -0.00     0.00     0.00     0.00
eigval :       28.01    69.18    80.21   127.11   129.06   199.41
eigval :      204.08   227.68   261.09   277.01   284.04   356.41
eigval :      363.06   407.21   472.71   586.00   638.44   657.16
eigval :      683.04   704.76   729.28   746.99   791.36   871.27
eigval :      894.61   925.17   931.22   968.65   974.24   998.57
eigval :     1012.26  1021.84  1065.58  1072.78  1085.77  1115.66
eigval :     1123.17  1181.84  1203.16  1225.68  1227.99  1250.79
eigval :     1266.83  1282.14  1316.99  1408.47  1410.72  1421.74
eigval :     1451.04  1454.60  1461.89  1497.33  1500.90  1504.74
eigval :     1508.60  1577.57  1589.13  2939.05  2942.41  2949.68
eigval :     2960.43  3011.44  3013.27  3023.86  3024.83  3034.06
eigval :     3039.03  3057.93  3068.30  3074.72  3087.06  3094.15

   temp. (K)  partition function   enthalpy   heat capacity  entropy
                                   cal/mol     cal/K/mol   cal/K/mol   J/K/mol
 298.15  VIB  0.120E+05             6096.308     39.510     37.111
         ROT  0.113E+07              888.752      2.981     30.681
         INT  0.136E+11             6985.060     42.491     67.792
         TR   0.207E+28             1481.254      4.968     41.214
         TOT                        8466.3142    47.4590   109.0060   456.0810

       T/K    H(0)-H(T)+PV         H(T)/Eh          T*S/Eh         G(T)/Eh
   ------------------------------------------------------------------------
    298.15    0.134919E-01    0.232530E+00    0.517923E-01    0.180737E+00
   ------------------------------------------------------------------------

         :::::::::::::::::::::::::::::::::::::::::::::::::::::
         ::                  THERMODYNAMIC                  ::
         :::::::::::::::::::::::::::::::::::::::::::::::::::::
         :: total free energy         -31.375186568322 Eh   ::
         ::.................................................::
         :: total energy              -31.555923986704 Eh   ::
         :: zero point energy           0.219037741245 Eh   ::
         :: G(RRHO) w/o ZPVE           -0.038300322863 Eh   ::
         :: G(RRHO) contrib.            0.180737418382 Eh   ::
         :::::::::::::::::::::::::::::::::::::::::::::::::::::

           -------------------------------------------------
          | TOTAL ENERGY              -31.555923986704 Eh   |
          | TOTAL ENTHALPY            -31.323394315036 Eh   |
          | TOTAL FREE ENERGY         -31.375186568322 Eh   |
          | GRADIENT NORM               0.000040882679 Eh/α |
          | HOMO-LUMO GAP               3.638690101777 eV   |
           -------------------------------------------------

 * finished run on 2025/07/14 at 11:33:19.645
