   * xtb version 6.7.0 (08769fc) compiled by 'albert@albert-system' on 2024-03-04

   ID    Z sym.   atoms
    1   15 P      1
    2    6 C      2, 5, 9-14, 20, 23
    3    1 H      3, 4, 6-8, 15-19, 21, 22, 24-26

          program call               : /home/minenky/programs/xtb/xtb-dist/bin/xtb m1_00_PEt2Ph-PBE0-D3-TZ-uniMM_40.xyz --charge 0 --T --ohess extreme --cycles 5000 --acc 0.01 --iterations 5000
          :  Hamiltonian                  GFN2-xTB          :
 * total energy  :   -31.5391017 Eh     change       -0.7105427E-14 Eh
 * total energy  :   -31.5444477 Eh     change       -0.5345969E-02 Eh
 * total energy  :   -31.5460577 Eh     change       -0.1610046E-02 Eh
 * total energy  :   -31.5466534 Eh     change       -0.5956695E-03 Eh
 * total energy  :   -31.5469878 Eh     change       -0.3344263E-03 Eh
 * total energy  :   -31.5473193 Eh     change       -0.3314448E-03 Eh
 * total energy  :   -31.5476819 Eh     change       -0.3626605E-03 Eh
 * total energy  :   -31.5480636 Eh     change       -0.3816549E-03 Eh
 * total energy  :   -31.5485042 Eh     change       -0.4405797E-03 Eh
 * total energy  :   -31.5491121 Eh     change       -0.6079724E-03 Eh
 * total energy  :   -31.5526412 Eh     change       -0.2565064E-06 Eh
 * total energy  :   -31.5526414 Eh     change       -0.2513670E-06 Eh
 * total energy  :   -31.5526417 Eh     change       -0.2476576E-06 Eh
 * total energy  :   -31.5526419 Eh     change       -0.2428609E-06 Eh
 * total energy  :   -31.5526422 Eh     change       -0.2398848E-06 Eh
 * total energy  :   -31.5526424 Eh     change       -0.2336221E-06 Eh
 * total energy  :   -31.5526426 Eh     change       -0.2283935E-06 Eh
 * total energy  :   -31.5526429 Eh     change       -0.2255590E-06 Eh
 * total energy  :   -31.5526429 Eh     change       -0.1827857E-08 Eh
   *** GEOMETRY OPTIMIZATION CONVERGED AFTER 260 ITERATIONS ***

 final structure:
================
26
 xtb: 6.7.0 (08769fc)
P            1.60300965764238       -0.25881567819107       -3.11972064471879
C            0.71235710419086        0.98634560966858       -2.04408509656574
H            1.40152584518061        1.22681695750169       -1.22938218518400
H            0.51152015741143        1.89529806111082       -2.61572502839717
C           -0.58297773430615        0.43161197127296       -1.46993608933655
H           -0.40058721414758       -0.50564283008813       -0.94753320460467
H           -1.30808257902687        0.25143554698417       -2.26085952118866
H           -1.01658348105083        1.13989913835124       -0.76534485541016
C            0.51302709343738       -0.15771782486339       -4.59562038468309
C            0.73523298736404        0.61727027691562       -5.72690952408989
C           -0.60657186553929       -0.98725599297474       -4.56280356669094
C           -0.16477789996338        0.59362500689924       -6.77853383624611
C           -1.50839519435728       -1.00556405465070       -5.60930616780214
C           -1.29215501438202       -0.20690829776033       -6.72018734920990
H            1.61335727220098        1.23911452135018       -5.80551662317165
H           -0.75608578880479       -1.63081512210932       -3.70625409791943
H            0.01778452296380        1.20554649400578       -7.65078792200310
H           -2.37575616828422       -1.64866767589226       -5.56453266766500
H           -1.99277875487211       -0.21801656060723       -7.54234384051487
C            3.09817526530395        0.75079787804584       -3.61431178508958
H            3.88550363661903        0.44563937534477       -2.91685023300252
H            3.39555831083420        0.37681218309553       -4.59871553079589
C            3.01103435038937        2.27325946695527       -3.61923880753717
H            2.89739745550299        2.65895487669661       -2.60914672577188
H            2.17818590189229        2.63444328339990       -4.21761352474691
H            3.93064013380206        2.68534738953921       -4.03363178765355

          :  Hamiltonian                  GFN2-xTB          :
         :: gradient norm              0.000034889074 Eh/a0 ::
         :: HOMO-LUMO gap              3.637697625267 eV    ::
         :: SCC energy               -32.072978547511 Eh    ::
         :: -> dispersion             -0.024178604282 Eh    ::
         :: repulsion energy           0.520335678350 Eh    ::

    * Orbital Energies and Occupations

         #    Occupation            Energy/Eh            Energy/eV
      -------------------------------------------------------------
         1        2.0000           -0.6578191             -17.9002
       ...           ...                  ...                  ...
        18        2.0000           -0.4749024             -12.9228
        19        2.0000           -0.4731659             -12.8755
        20        2.0000           -0.4666738             -12.6988
        21        2.0000           -0.4608755             -12.5411
        22        2.0000           -0.4563640             -12.4183
        23        2.0000           -0.4435119             -12.0686
        24        2.0000           -0.4415715             -12.0158
        25        2.0000           -0.4235211             -11.5246
        26        2.0000           -0.4155313             -11.3072
        27        2.0000           -0.4055984             -11.0369
        28        2.0000           -0.4021247             -10.9424
        29        2.0000           -0.3976076             -10.8195
        30        2.0000           -0.3633564              -9.8874 (HOMO)
        31                         -0.2296735              -6.2497 (LUMO)
        32                         -0.2211893              -6.0189
        33                         -0.1567710              -4.2660
        34                         -0.1496444              -4.0720
        35                         -0.0924561              -2.5159
        36                         -0.0113724              -0.3095
        37                          0.0651700               1.7734
        38                          0.0894050               2.4328
        39                          0.1153270               3.1382
        40                          0.1224869               3.3330
        41                          0.1343153               3.6549
       ...                                ...                  ...
        64                          0.7729386              21.0327
      -------------------------------------------------------------
                  HL-Gap            0.1336829 Eh            3.6377 eV

     #   Z          covCN         q      C6AA      α(0)
     1  15 P        3.004    -0.118   165.586    23.117
     2   6 C        3.748    -0.043    21.417     6.601
     3   1 H        0.926     0.042     2.423     2.434
     4   1 H        0.925     0.046     2.368     2.407
     5   6 C        3.807    -0.098    22.371     6.733
     6   1 H        0.925     0.041     2.429     2.437
     7   1 H        0.925     0.039     2.458     2.452
     8   1 H        0.925     0.033     2.547     2.496
     9   6 C        2.915     0.010    27.800     8.646
    10   6 C        2.954    -0.033    28.823     8.806
    11   6 C        3.035    -0.031    28.737     8.793
    12   6 C        2.920    -0.031    28.785     8.798
    13   6 C        2.918    -0.030    28.759     8.794
    14   6 C        2.920    -0.030    28.761     8.794
    15   1 H        0.926     0.036     2.502     2.474
    16   1 H        0.925     0.038     2.477     2.461
    17   1 H        0.926     0.027     2.633     2.538
    18   1 H        0.926     0.028     2.614     2.528
    19   1 H        0.926     0.028     2.620     2.531
    20   6 C        3.747    -0.048    21.498     6.613
    21   1 H        0.926     0.039     2.465     2.455
    22   1 H        0.926     0.044     2.400     2.423
    23   6 C        3.769    -0.095    22.345     6.737
    24   1 H        0.925     0.037     2.496     2.470
    25   1 H        0.925     0.039     2.465     2.455
    26   1 H        0.925     0.033     2.546     2.495

Wiberg/Mayer (AO) data.
largest (>0.10) Wiberg bond orders for each atom

     #   Z sym  total        # sym  WBO       # sym  WBO       # sym  WBO
 ---------------------------------------------------------------------------
     1  15 P    3.364 --    20 C    1.029     9 C    1.016     2 C    1.012
     2   6 C    3.996 --     5 C    1.017     1 P    1.012     3 H    0.955
                             4 H    0.954
     3   1 H    0.997 --     2 C    0.955
     4   1 H    0.998 --     2 C    0.954
     5   6 C    3.996 --     2 C    1.017     6 H    0.985     8 H    0.984
                             7 H    0.983
     6   1 H    0.998 --     5 C    0.985
     7   1 H    0.998 --     5 C    0.983
     8   1 H    0.999 --     5 C    0.984
     9   6 C    3.982 --    10 C    1.404    11 C    1.393     1 P    1.016
                            14 C    0.106
    10   6 C    3.992 --    12 C    1.442     9 C    1.404    15 H    0.961
                            13 C    0.108
    11   6 C    3.992 --    13 C    1.452     9 C    1.393    16 H    0.961
                            12 C    0.109
    12   6 C    3.992 --    10 C    1.442    14 C    1.439    17 H    0.970
                            11 C    0.109
    13   6 C    3.991 --    11 C    1.452    14 C    1.431    18 H    0.970
                            10 C    0.108
    14   6 C    3.992 --    12 C    1.439    13 C    1.431    19 H    0.971
                             9 C    0.106
    15   1 H    0.999 --    10 C    0.961
    16   1 H    0.999 --    11 C    0.961
    17   1 H    0.999 --    12 C    0.970
    18   1 H    0.999 --    13 C    0.970
    19   1 H    0.999 --    14 C    0.971
    20   6 C    3.991 --     1 P    1.029    23 C    1.010    21 H    0.959
                            22 H    0.953
    21   1 H    0.998 --    20 C    0.959
    22   1 H    0.998 --    20 C    0.953
    23   6 C    3.997 --    20 C    1.010    24 H    0.986    26 H    0.983
                            25 H    0.981
    24   1 H    0.999 --    23 C    0.986
    25   1 H    0.998 --    23 C    0.981
    26   1 H    0.999 --    23 C    0.983
 ---------------------------------------------------------------------------

molecular dipole:
                 x           y           z       tot (Debye)
 q only:        0.003       0.321       0.077
   full:       -0.066       0.657      -0.093       1.695

 projected vibrational frequencies (cm⁻¹)
eigval :       -0.00    -0.00    -0.00     0.00     0.00     0.00
eigval :       21.80    75.38   108.48   129.09   165.14   178.16
eigval :      216.98   230.37   253.10   261.00   287.57   365.97
eigval :      378.24   409.36   461.18   585.60   643.97   660.31
eigval :      682.07   688.19   736.84   749.61   778.92   876.94
eigval :      900.88   928.49   933.72   968.13   991.15   999.25
eigval :     1018.12  1019.92  1061.06  1080.78  1084.72  1115.33
eigval :     1121.24  1181.54  1202.37  1228.90  1232.72  1248.23
eigval :     1276.33  1283.57  1316.07  1408.58  1410.70  1421.33
eigval :     1442.85  1455.63  1463.10  1497.71  1503.17  1505.69
eigval :     1512.75  1578.09  1589.03  2928.57  2941.45  2948.35
eigval :     2950.98  3008.17  3012.25  3025.38  3031.77  3034.21
eigval :     3042.36  3058.43  3066.85  3073.89  3086.47  3099.91

   temp. (K)  partition function   enthalpy   heat capacity  entropy
                                   cal/mol     cal/K/mol   cal/K/mol   J/K/mol
 298.15  VIB  0.976E+04             6030.451     39.515     36.287
         ROT  0.117E+07              888.752      2.981     30.750
         INT  0.114E+11             6919.203     42.496     67.037
         TR   0.207E+28             1481.254      4.968     41.214
         TOT                        8400.4574    47.4642   108.2508   452.9213

       T/K    H(0)-H(T)+PV         H(T)/Eh          T*S/Eh         G(T)/Eh
   ------------------------------------------------------------------------
    298.15    0.133870E-01    0.232625E+00    0.514334E-01    0.181192E+00
   ------------------------------------------------------------------------

         :::::::::::::::::::::::::::::::::::::::::::::::::::::
         ::                  THERMODYNAMIC                  ::
         :::::::::::::::::::::::::::::::::::::::::::::::::::::
         :: total free energy         -31.371451033578 Eh   ::
         ::.................................................::
         :: total energy              -31.552642869161 Eh   ::
         :: zero point energy           0.219238302989 Eh   ::
         :: G(RRHO) w/o ZPVE           -0.038046467406 Eh   ::
         :: G(RRHO) contrib.            0.181191835583 Eh   ::
         :::::::::::::::::::::::::::::::::::::::::::::::::::::

           -------------------------------------------------
          | TOTAL ENERGY              -31.552642869161 Eh   |
          | TOTAL ENTHALPY            -31.320017585232 Eh   |
          | TOTAL FREE ENERGY         -31.371451033578 Eh   |
          | GRADIENT NORM               0.000034889076 Eh/α |
          | HOMO-LUMO GAP               3.637697681862 eV   |
           -------------------------------------------------

 * finished run on 2025/07/14 at 11:32:18.217
