   * xtb version 6.7.0 (08769fc) compiled by 'albert@albert-system' on 2024-03-04

   ID    Z sym.   atoms
    1   15 P      1
    2    6 C      2, 5, 9-14, 20, 23
    3    1 H      3, 4, 6-8, 15-19, 21, 22, 24-26

          program call               : /home/minenky/programs/xtb/xtb-dist/bin/xtb m1_00_PEt2Ph-PBE0-D3-TZ-uniMM_37.xyz --charge 0 --T --ohess extreme --cycles 5000 --acc 0.01 --iterations 5000
          :  Hamiltonian                  GFN2-xTB          :
 * total energy  :   -31.5389534 Eh     change       -0.1776357E-12 Eh
 * total energy  :   -31.5477416 Eh     change       -0.8788265E-02 Eh
 * total energy  :   -31.5498528 Eh     change       -0.2111130E-02 Eh
 * total energy  :   -31.5510405 Eh     change       -0.1187741E-02 Eh
 * total energy  :   -31.5514956 Eh     change       -0.4550369E-03 Eh
 * total energy  :   -31.5516590 Eh     change       -0.1634880E-03 Eh
 * total energy  :   -31.5517255 Eh     change       -0.6644608E-04 Eh
 * total energy  :   -31.5517639 Eh     change       -0.3837636E-04 Eh
 * total energy  :   -31.5517876 Eh     change       -0.2378165E-04 Eh
 * total energy  :   -31.5518469 Eh     change       -0.5921536E-04 Eh
 * total energy  :   -31.5526340 Eh     change       -0.4310301E-06 Eh
 * total energy  :   -31.5526345 Eh     change       -0.4243680E-06 Eh
 * total energy  :   -31.5526349 Eh     change       -0.4213907E-06 Eh
 * total energy  :   -31.5526353 Eh     change       -0.4147540E-06 Eh
 * total energy  :   -31.5526357 Eh     change       -0.4102747E-06 Eh
 * total energy  :   -31.5526361 Eh     change       -0.4028579E-06 Eh
 * total energy  :   -31.5526365 Eh     change       -0.3974044E-06 Eh
 * total energy  :   -31.5526369 Eh     change       -0.3857020E-06 Eh
 * total energy  :   -31.5526369 Eh     change       -0.3013970E-08 Eh
   *** GEOMETRY OPTIMIZATION CONVERGED AFTER 221 ITERATIONS ***

 final structure:
================
26
 xtb: 6.7.0 (08769fc)
P            1.59447025260455       -0.38075500691900       -3.02135443472429
C            2.21677702138334       -1.00630808803743       -4.67121280311598
H            2.33299223580740       -2.08793135762141       -4.55314209428753
H            1.37868653172928       -0.85866900779961       -5.36062349750999
C            3.47012338211834       -0.39305291350435       -5.28634717721126
H            4.31796843559288       -0.42326731619440       -4.60637241462197
H            3.29706392482535        0.64227934553871       -5.56938955224362
H            3.73709204156864       -0.94626660035092       -6.18629672172618
C            2.74593332613214       -1.14867716331092       -1.81250772751708
C            3.88956578707569       -1.87572645095298       -2.11775584533404
C            2.38113107691147       -1.00611964257369       -0.47492645506420
C            4.66926929617283       -2.40975128330901       -1.10615879489069
C            3.16296109798891       -1.53324584901630        0.53490182287472
C            4.31634812573844       -2.23277802684789        0.22028264205952
H            4.18020502043305       -2.04122310691580       -3.14349505823447
H            1.46487081066259       -0.48326436175855       -0.23544101537650
H            5.55942820320146       -2.96926165003395       -1.35749533973747
H            2.86997533776058       -1.40722411846229        1.56745783205337
H            4.93096264243995       -2.64870888927593        1.00526375871931
C            2.32696077076678        1.34078763165403       -3.02641585604990
H            3.41132722719875        1.28316837783360       -3.14535443516037
H            1.90253142940557        1.84663797199873       -3.89842673522325
C            1.97871099218967        2.11769163103819       -1.76529976265136
H            2.44728893221275        1.66546311500898       -0.89360226679511
H            0.90160122231092        2.13350390984106       -1.60978215358669
H            2.33016087576910        3.14531084997108       -1.84644491464539

          :  Hamiltonian                  GFN2-xTB          :
         :: gradient norm              0.000044805779 Eh/a0 ::
         :: HOMO-LUMO gap              3.637690518285 eV    ::
         :: SCC energy               -32.072966781780 Eh    ::
         :: -> dispersion             -0.024181994484 Eh    ::
         :: repulsion energy           0.520329894685 Eh    ::

    * Orbital Energies and Occupations

         #    Occupation            Energy/Eh            Energy/eV
      -------------------------------------------------------------
         1        2.0000           -0.6578054             -17.8998
       ...           ...                  ...                  ...
        18        2.0000           -0.4749363             -12.9237
        19        2.0000           -0.4731637             -12.8754
        20        2.0000           -0.4666602             -12.6985
        21        2.0000           -0.4608853             -12.5413
        22        2.0000           -0.4563717             -12.4185
        23        2.0000           -0.4435479             -12.0696
        24        2.0000           -0.4415188             -12.0143
        25        2.0000           -0.4234944             -11.5239
        26        2.0000           -0.4156190             -11.3096
        27        2.0000           -0.4055150             -11.0346
        28        2.0000           -0.4021662             -10.9435
        29        2.0000           -0.3975677             -10.8184
        30        2.0000           -0.3633853              -9.8882 (HOMO)
        31                         -0.2297027              -6.2505 (LUMO)
        32                         -0.2212239              -6.0198
        33                         -0.1565550              -4.2601
        34                         -0.1499600              -4.0806
        35                         -0.0924811              -2.5165
        36                         -0.0116170              -0.3161
        37                          0.0649168               1.7665
        38                          0.0898988               2.4463
        39                          0.1149599               3.1282
        40                          0.1226674               3.3379
        41                          0.1345517               3.6613
       ...                                ...                  ...
        64                          0.7725563              21.0223
      -------------------------------------------------------------
                  HL-Gap            0.1336827 Eh            3.6377 eV

     #   Z          covCN         q      C6AA      α(0)
     1  15 P        3.005    -0.118   165.591    23.118
     2   6 C        3.747    -0.048    21.499     6.614
     3   1 H        0.926     0.044     2.399     2.422
     4   1 H        0.926     0.039     2.465     2.455
     5   6 C        3.769    -0.095    22.343     6.736
     6   1 H        0.925     0.039     2.468     2.457
     7   1 H        0.925     0.037     2.495     2.470
     8   1 H        0.925     0.033     2.546     2.495
     9   6 C        2.915     0.010    27.801     8.646
    10   6 C        2.954    -0.033    28.821     8.805
    11   6 C        3.035    -0.031    28.736     8.793
    12   6 C        2.920    -0.031    28.785     8.798
    13   6 C        2.918    -0.030    28.759     8.794
    14   6 C        2.920    -0.030    28.760     8.794
    15   1 H        0.926     0.036     2.503     2.474
    16   1 H        0.925     0.038     2.476     2.461
    17   1 H        0.926     0.027     2.633     2.538
    18   1 H        0.926     0.028     2.613     2.528
    19   1 H        0.926     0.028     2.620     2.531
    20   6 C        3.748    -0.043    21.416     6.601
    21   1 H        0.925     0.046     2.368     2.406
    22   1 H        0.926     0.042     2.424     2.435
    23   6 C        3.808    -0.098    22.369     6.733
    24   1 H        0.925     0.039     2.459     2.452
    25   1 H        0.925     0.041     2.429     2.437
    26   1 H        0.925     0.033     2.547     2.496

Wiberg/Mayer (AO) data.
largest (>0.10) Wiberg bond orders for each atom

     #   Z sym  total        # sym  WBO       # sym  WBO       # sym  WBO
 ---------------------------------------------------------------------------
     1  15 P    3.363 --     2 C    1.028     9 C    1.016    20 C    1.012
     2   6 C    3.991 --     1 P    1.028     5 C    1.010     4 H    0.959
                             3 H    0.953
     3   1 H    0.998 --     2 C    0.953
     4   1 H    0.998 --     2 C    0.959
     5   6 C    3.997 --     2 C    1.010     7 H    0.986     8 H    0.983
                             6 H    0.981
     6   1 H    0.998 --     5 C    0.981
     7   1 H    0.999 --     5 C    0.986
     8   1 H    0.999 --     5 C    0.983
     9   6 C    3.982 --    10 C    1.404    11 C    1.393     1 P    1.016
                            14 C    0.106
    10   6 C    3.992 --    12 C    1.442     9 C    1.404    15 H    0.961
                            13 C    0.108
    11   6 C    3.992 --    13 C    1.452     9 C    1.393    16 H    0.962
                            12 C    0.109
    12   6 C    3.992 --    10 C    1.442    14 C    1.439    17 H    0.970
                            11 C    0.109
    13   6 C    3.991 --    11 C    1.452    14 C    1.432    18 H    0.970
                            10 C    0.108
    14   6 C    3.992 --    12 C    1.439    13 C    1.432    19 H    0.971
                             9 C    0.106
    15   1 H    0.999 --    10 C    0.961
    16   1 H    0.999 --    11 C    0.962
    17   1 H    0.999 --    12 C    0.970
    18   1 H    0.999 --    13 C    0.970
    19   1 H    0.999 --    14 C    0.971
    20   6 C    3.996 --    23 C    1.017     1 P    1.012    22 H    0.956
                            21 H    0.953
    21   1 H    0.998 --    20 C    0.953
    22   1 H    0.997 --    20 C    0.956
    23   6 C    3.996 --    20 C    1.017    25 H    0.985    26 H    0.984
                            24 H    0.983
    24   1 H    0.998 --    23 C    0.983
    25   1 H    0.998 --    23 C    0.985
    26   1 H    0.999 --    23 C    0.984
 ---------------------------------------------------------------------------

molecular dipole:
                 x           y           z       tot (Debye)
 q only:        0.220       0.184      -0.162
   full:        0.600       0.195      -0.217       1.696

 projected vibrational frequencies (cm⁻¹)
eigval :       -0.00    -0.00    -0.00     0.00     0.00     0.00
eigval :       22.17    75.05   108.82   128.82   164.94   176.52
eigval :      217.39   229.63   253.01   261.13   287.70   365.79
eigval :      378.42   409.30   460.81   585.62   643.85   660.26
eigval :      682.50   688.11   736.70   749.43   779.12   876.81
eigval :      900.78   928.41   933.69   968.14   991.03   999.09
eigval :     1017.80  1020.05  1061.14  1080.69  1084.67  1115.36
eigval :     1121.23  1181.53  1202.22  1228.83  1232.71  1247.92
eigval :     1276.35  1283.78  1316.07  1408.73  1410.70  1421.41
eigval :     1442.74  1455.79  1462.91  1497.68  1503.12  1505.53
eigval :     1512.65  1578.15  1588.98  2928.71  2941.88  2948.27
eigval :     2950.94  3008.09  3012.26  3025.38  3031.30  3034.31
eigval :     3042.40  3058.16  3066.83  3073.88  3086.45  3099.83

   temp. (K)  partition function   enthalpy   heat capacity  entropy
                                   cal/mol     cal/K/mol   cal/K/mol   J/K/mol
 298.15  VIB  0.970E+04             6032.628     39.520     36.301
         ROT  0.117E+07              888.752      2.981     30.749
         INT  0.114E+11             6921.380     42.501     67.050
         TR   0.207E+28             1481.254      4.968     41.214
         TOT                        8402.6341    47.4690   108.2639   452.9762

       T/K    H(0)-H(T)+PV         H(T)/Eh          T*S/Eh         G(T)/Eh
   ------------------------------------------------------------------------
    298.15    0.133904E-01    0.232620E+00    0.514397E-01    0.181180E+00
   ------------------------------------------------------------------------

         :::::::::::::::::::::::::::::::::::::::::::::::::::::
         ::                  THERMODYNAMIC                  ::
         :::::::::::::::::::::::::::::::::::::::::::::::::::::
         :: total free energy         -31.371457017193 Eh   ::
         ::.................................................::
         :: total energy              -31.552636887095 Eh   ::
         :: zero point energy           0.219229093372 Eh   ::
         :: G(RRHO) w/o ZPVE           -0.038049223470 Eh   ::
         :: G(RRHO) contrib.            0.181179869902 Eh   ::
         :::::::::::::::::::::::::::::::::::::::::::::::::::::

           -------------------------------------------------
          | TOTAL ENERGY              -31.552636887095 Eh   |
          | TOTAL ENTHALPY            -31.320017343934 Eh   |
          | TOTAL FREE ENERGY         -31.371457017193 Eh   |
          | GRADIENT NORM               0.000044805607 Eh/α |
          | HOMO-LUMO GAP               3.637690543596 eV   |
           -------------------------------------------------

 * finished run on 2025/07/14 at 11:31:25.908
