   * xtb version 6.7.0 (08769fc) compiled by 'albert@albert-system' on 2024-03-04

   ID    Z sym.   atoms
    1   15 P      1
    2    6 C      2, 5, 9-14, 20, 23
    3    1 H      3, 4, 6-8, 15-19, 21, 22, 24-26

          program call               : /home/minenky/programs/xtb/xtb-dist/bin/xtb m1_00_PEt2Ph-PBE0-D3-TZ-uniMM_29.xyz --charge 0 --T --ohess extreme --cycles 5000 --acc 0.01 --iterations 5000
          :  Hamiltonian                  GFN2-xTB          :
 * total energy  :   -31.5454579 Eh     change       -0.1421085E-13 Eh
 * total energy  :   -31.5509775 Eh     change       -0.5519607E-02 Eh
 * total energy  :   -31.5525963 Eh     change       -0.1618749E-02 Eh
 * total energy  :   -31.5532973 Eh     change       -0.7010628E-03 Eh
 * total energy  :   -31.5535960 Eh     change       -0.2986821E-03 Eh
 * total energy  :   -31.5538216 Eh     change       -0.2255838E-03 Eh
 * total energy  :   -31.5540449 Eh     change       -0.2232751E-03 Eh
 * total energy  :   -31.5543052 Eh     change       -0.2602986E-03 Eh
 * total energy  :   -31.5546392 Eh     change       -0.3340595E-03 Eh
 * total energy  :   -31.5550299 Eh     change       -0.3906519E-03 Eh
 * total energy  :   -31.5570209 Eh     change       -0.6569323E-06 Eh
 * total energy  :   -31.5570213 Eh     change       -0.3728013E-06 Eh
 * total energy  :   -31.5570216 Eh     change       -0.3580203E-06 Eh
 * total energy  :   -31.5570218 Eh     change       -0.2202989E-06 Eh
 * total energy  :   -31.5570219 Eh     change       -0.7461728E-07 Eh
 * total energy  :   -31.5570219 Eh     change        0.1635113E-07 Eh
 * total energy  :   -31.5570220 Eh     change       -0.5380376E-07 Eh
 * total energy  :   -31.5570219 Eh     change        0.1396907E-07 Eh
 * total energy  :   -31.5570220 Eh     change       -0.3861849E-07 Eh
   *** GEOMETRY OPTIMIZATION CONVERGED AFTER 39 ITERATIONS ***

 final structure:
================
26
 xtb: 6.7.0 (08769fc)
P            1.69033245081251       -0.31188124583233       -2.83950008393478
C            0.33554462104752       -0.63425460070150       -1.59684987540474
H           -0.61310713833827       -0.47540392396088       -2.11801895973608
H            0.36532181334853       -1.67304016041444       -1.25787386275862
C            0.44584299165069        0.31701790131653       -0.41344397105291
H            0.41659738839410        1.35065532259827       -0.75270809998162
H            1.38506378076536        0.15964673848330        0.11480448434393
H           -0.37435286708747        0.15940088761452        0.28510189176753
C            3.14211204925422       -0.87243699902087       -1.85452076754342
C            3.20704306258723       -2.08345275450332       -1.17524159165917
C            4.23315693261738       -0.01206207744474       -1.80224506948536
C            4.34044664462565       -2.42316493103540       -0.45999039899341
C            5.36787157894329       -0.35118191907117       -1.08725514181018
C            5.42267999513569       -1.55939856741326       -0.41400951907581
H            2.37321121031623       -2.77100156433043       -1.19895900187659
H            4.18148634987953        0.92984021816702       -2.33094296712730
H            4.38096567057343       -3.36718238785077        0.06512941106746
H            6.20928751739427        0.32592478240694       -1.05456980234675
H            6.30605039212566       -1.82951412182093        0.14617811128345
C            1.43714706732573       -1.83280599658711       -3.89139586364935
H            1.34357634813271       -2.72158762428056       -3.26188543769954
H            0.49220450146261       -1.69365489608813       -4.42471076775934
C            2.57757000673143       -2.00119182765252       -4.88569494670506
H            3.52082400289626       -2.14693474436067       -4.36128638038614
H            2.67049409927308       -1.11545581586937       -5.51111419792406
H            2.40336553013279       -2.86184469234761       -5.52944919155238

          :  Hamiltonian                  GFN2-xTB          :
         :: gradient norm              0.000024146216 Eh/a0 ::
         :: HOMO-LUMO gap              3.636732651589 eV    ::
         :: SCC energy               -32.077694226496 Eh    ::
         :: -> dispersion             -0.024028168944 Eh    ::
         :: repulsion energy           0.520672251690 Eh    ::

    * Orbital Energies and Occupations

         #    Occupation            Energy/Eh            Energy/eV
      -------------------------------------------------------------
         1        2.0000           -0.6581197             -17.9083
       ...           ...                  ...                  ...
        18        2.0000           -0.4773506             -12.9894
        19        2.0000           -0.4746562             -12.9161
        20        2.0000           -0.4704109             -12.8005
        21        2.0000           -0.4563116             -12.4169
        22        2.0000           -0.4562019             -12.4139
        23        2.0000           -0.4422871             -12.0352
        24        2.0000           -0.4364939             -11.8776
        25        2.0000           -0.4232583             -11.5174
        26        2.0000           -0.4194696             -11.4143
        27        2.0000           -0.4052714             -11.0280
        28        2.0000           -0.4045289             -11.0078
        29        2.0000           -0.3969990             -10.8029
        30        2.0000           -0.3672909              -9.9945 (HOMO)
        31                         -0.2336435              -6.3578 (LUMO)
        32                         -0.2230334              -6.0690
        33                         -0.1548778              -4.2144
        34                         -0.1507359              -4.1017
        35                         -0.0928032              -2.5253
        36                          0.0045381               0.1235
        37                          0.0549727               1.4959
        38                          0.0923775               2.5137
        39                          0.1107989               3.0150
        40                          0.1351993               3.6790
        41                          0.1375463               3.7428
       ...                                ...                  ...
        64                          0.7794336              21.2095
      -------------------------------------------------------------
                  HL-Gap            0.1336475 Eh            3.6367 eV

     #   Z          covCN         q      C6AA      α(0)
     1  15 P        3.056    -0.118   165.594    23.117
     2   6 C        3.748    -0.047    21.475     6.610
     3   1 H        0.926     0.039     2.469     2.457
     4   1 H        0.925     0.042     2.420     2.433
     5   6 C        3.821    -0.096    22.316     6.723
     6   1 H        0.925     0.042     2.428     2.437
     7   1 H        0.925     0.036     2.501     2.473
     8   1 H        0.925     0.033     2.546     2.495
     9   6 C        2.916     0.011    27.768     8.641
    10   6 C        2.961    -0.027    28.680     8.784
    11   6 C        3.016    -0.030    28.728     8.792
    12   6 C        2.919    -0.031    28.784     8.798
    13   6 C        2.918    -0.030    28.749     8.792
    14   6 C        2.920    -0.029    28.734     8.790
    15   1 H        0.926     0.032     2.564     2.504
    16   1 H        0.925     0.040     2.451     2.448
    17   1 H        0.926     0.028     2.619     2.531
    18   1 H        0.926     0.030     2.588     2.516
    19   1 H        0.926     0.029     2.603     2.523
    20   6 C        3.748    -0.047    21.475     6.610
    21   1 H        0.925     0.042     2.418     2.432
    22   1 H        0.926     0.039     2.468     2.457
    23   6 C        3.821    -0.096    22.317     6.723
    24   1 H        0.925     0.036     2.501     2.473
    25   1 H        0.925     0.042     2.428     2.437
    26   1 H        0.925     0.033     2.546     2.495

Wiberg/Mayer (AO) data.
largest (>0.10) Wiberg bond orders for each atom

     #   Z sym  total        # sym  WBO       # sym  WBO       # sym  WBO
 ---------------------------------------------------------------------------
     1  15 P    3.349 --     2 C    1.025    20 C    1.024     9 C    1.007
     2   6 C    3.993 --     1 P    1.025     5 C    1.017     3 H    0.958
                             4 H    0.951
     3   1 H    0.998 --     2 C    0.958
     4   1 H    0.998 --     2 C    0.951
     5   6 C    3.995 --     2 C    1.017     6 H    0.985     8 H    0.985
                             7 H    0.984
     6   1 H    0.998 --     5 C    0.985
     7   1 H    0.999 --     5 C    0.984
     8   1 H    0.999 --     5 C    0.985
     9   6 C    3.983 --    11 C    1.408    10 C    1.400     1 P    1.007
                            14 C    0.108
    10   6 C    3.993 --    12 C    1.450     9 C    1.400    15 H    0.961
                            13 C    0.111
    11   6 C    3.992 --    13 C    1.443     9 C    1.408    16 H    0.964
                            12 C    0.108
    12   6 C    3.993 --    10 C    1.450    14 C    1.432    17 H    0.970
                            11 C    0.108
    13   6 C    3.992 --    11 C    1.443    14 C    1.441    18 H    0.970
                            10 C    0.111
    14   6 C    3.985 --    13 C    1.441    12 C    1.432    19 H    0.971
                             9 C    0.108
    15   1 H    0.999 --    10 C    0.961
    16   1 H    0.998 --    11 C    0.964
    17   1 H    0.999 --    12 C    0.970
    18   1 H    0.999 --    13 C    0.970
    19   1 H    0.999 --    14 C    0.971
    20   6 C    3.993 --     1 P    1.024    23 C    1.017    22 H    0.958
                            21 H    0.951
    21   1 H    0.998 --    20 C    0.951
    22   1 H    0.998 --    20 C    0.958
    23   6 C    3.995 --    20 C    1.017    25 H    0.985    26 H    0.984
                            24 H    0.984
    24   1 H    0.999 --    23 C    0.984
    25   1 H    0.998 --    23 C    0.985
    26   1 H    0.999 --    23 C    0.984
 ---------------------------------------------------------------------------

molecular dipole:
                 x           y           z       tot (Debye)
 q only:       -0.074      -0.214       0.075
   full:       -0.076      -0.580       0.265       1.633

 projected vibrational frequencies (cm⁻¹)
eigval :       -0.00    -0.00    -0.00     0.00     0.00     0.00
eigval :       17.94    50.13    64.91   121.16   122.35   164.22
eigval :      199.45   213.88   232.51   295.24   318.30   320.53
eigval :      363.63   401.28   450.35   586.12   657.50   668.62
eigval :      687.43   704.73   735.17   753.41   780.22   875.02
eigval :      899.17   926.86   932.97   969.38   975.69   998.46
eigval :     1003.53  1020.06  1062.81  1082.81  1085.12  1116.94
eigval :     1121.56  1181.71  1198.86  1217.01  1229.73  1244.55
eigval :     1255.29  1278.93  1315.80  1410.38  1411.08  1423.54
eigval :     1442.61  1449.89  1458.00  1497.21  1497.33  1501.61
eigval :     1501.81  1579.97  1589.64  2931.61  2936.92  2944.65
eigval :     2951.29  3013.96  3014.42  3019.44  3019.49  3029.43
eigval :     3030.54  3061.30  3063.70  3070.69  3076.92  3087.66

   temp. (K)  partition function   enthalpy   heat capacity  entropy
                                   cal/mol     cal/K/mol   cal/K/mol   J/K/mol
 298.15  VIB  0.381E+05             6235.855     39.139     38.705
         ROT  0.118E+07              888.752      2.981     30.763
         INT  0.449E+11             7124.608     42.119     69.467
         TR   0.207E+28             1481.254      4.968     41.214
         TOT                        8605.8614    47.0876   110.6810   463.0895

       T/K    H(0)-H(T)+PV         H(T)/Eh          T*S/Eh         G(T)/Eh
   ------------------------------------------------------------------------
    298.15    0.137143E-01    0.232228E+00    0.525881E-01    0.179640E+00
   ------------------------------------------------------------------------

         :::::::::::::::::::::::::::::::::::::::::::::::::::::
         ::                  THERMODYNAMIC                  ::
         :::::::::::::::::::::::::::::::::::::::::::::::::::::
         :: total free energy         -31.377382104907 Eh   ::
         ::.................................................::
         :: total energy              -31.557021974806 Eh   ::
         :: zero point energy           0.218513688575 Eh   ::
         :: G(RRHO) w/o ZPVE           -0.038873818675 Eh   ::
         :: G(RRHO) contrib.            0.179639869900 Eh   ::
         :::::::::::::::::::::::::::::::::::::::::::::::::::::

           -------------------------------------------------
          | TOTAL ENERGY              -31.557021974806 Eh   |
          | TOTAL ENTHALPY            -31.324793973073 Eh   |
          | TOTAL FREE ENERGY         -31.377382104907 Eh   |
          | GRADIENT NORM               0.000024145798 Eh/α |
          | HOMO-LUMO GAP               3.636732680136 eV   |
           -------------------------------------------------

 * finished run on 2025/07/14 at 11:29:30.269
