   * xtb version 6.7.0 (08769fc) compiled by 'albert@albert-system' on 2024-03-04

   ID    Z sym.   atoms
    1   15 P      1
    2    6 C      2, 5, 9-14, 20, 23
    3    1 H      3, 4, 6-8, 15-19, 21, 22, 24-26

          program call               : /home/minenky/programs/xtb/xtb-dist/bin/xtb m1_00_PEt2Ph-PBE0-D3-TZ-uniMM_34.xyz --charge 0 --T --ohess extreme --cycles 5000 --acc 0.01 --iterations 5000
          :  Hamiltonian                  GFN2-xTB          :
 * total energy  :   -31.5504091 Eh     change       -0.1136868E-12 Eh
 * total energy  :   -31.5529645 Eh     change       -0.2555422E-02 Eh
 * total energy  :   -31.5540632 Eh     change       -0.1098684E-02 Eh
 * total energy  :   -31.5546497 Eh     change       -0.5864694E-03 Eh
 * total energy  :   -31.5549871 Eh     change       -0.3374387E-03 Eh
 * total energy  :   -31.5551739 Eh     change       -0.1867558E-03 Eh
 * total energy  :   -31.5552724 Eh     change       -0.9855128E-04 Eh
 * total energy  :   -31.5553351 Eh     change       -0.6267427E-04 Eh
 * total energy  :   -31.5553745 Eh     change       -0.3936785E-04 Eh
 * total energy  :   -31.5553967 Eh     change       -0.2219155E-04 Eh
 * total energy  :   -31.5556515 Eh     change       -0.1257391E-05 Eh
 * total energy  :   -31.5556526 Eh     change       -0.1181786E-05 Eh
 * total energy  :   -31.5556537 Eh     change       -0.1041066E-05 Eh
 * total energy  :   -31.5556546 Eh     change       -0.8908481E-06 Eh
 * total energy  :   -31.5556553 Eh     change       -0.7470682E-06 Eh
 * total energy  :   -31.5556559 Eh     change       -0.6282498E-06 Eh
 * total energy  :   -31.5556565 Eh     change       -0.5387453E-06 Eh
 * total energy  :   -31.5556570 Eh     change       -0.4780331E-06 Eh
 * total energy  :   -31.5556570 Eh     change       -0.3720686E-08 Eh
   *** GEOMETRY OPTIMIZATION CONVERGED AFTER 68 ITERATIONS ***

 final structure:
================
26
 xtb: 6.7.0 (08769fc)
P            1.57394145525230       -0.26717864355471       -2.99634938903213
C            2.87391852030046        0.22572069018171       -1.75397795950326
H            3.47511747534041        1.00328442506050       -2.23479405731897
H            2.41656318839829        0.65394430262351       -0.85932962839676
C            3.76809548669209       -0.95647590695331       -1.39767031778403
H            4.26255390347097       -1.33525406313971       -2.28976925428778
H            3.18823406170565       -1.77104384939790       -0.96793142445835
H            4.53120538701585       -0.65872994157184       -0.67972185941809
C            0.17855258799086       -0.80410995431917       -1.93092903198624
C           -1.03704130837352       -1.01240629708666       -2.58057818670234
C            0.26559863731851       -1.08707524755031       -0.57365973486116
C           -2.14802910250301       -1.44677217135756       -1.88502526715454
C           -0.84689394535913       -1.52914623849508        0.12217209315636
C           -2.05650139506440       -1.70330923228640       -0.52632853978172
H           -1.10392251472595       -0.82866041466388       -3.64460860478399
H            1.19752540436288       -0.96504121526959       -0.04319369131745
H           -3.08598436657640       -1.59206180978396       -2.40163216546124
H           -0.76588897961771       -1.73920832915915        1.17941238987853
H           -2.92225443700998       -2.04523545240230        0.02169427995729
C            0.93012278978117        1.43116638990011       -3.43877846084256
H            1.72617949662743        1.92063426330528       -4.00772796212925
H            0.09547523975183        1.27131501117785       -4.12682359346369
C            0.48309205806988        2.31456170788850       -2.28222551772707
H            1.32227714134230        2.59004339291974       -1.64848796330885
H           -0.26024960355811        1.80406262532818       -1.67241383735293
H            0.03830681936561        3.23054495860751       -2.66855831591948

          :  Hamiltonian                  GFN2-xTB          :
         :: gradient norm              0.000049654014 Eh/a0 ::
         :: HOMO-LUMO gap              3.646956015688 eV    ::
         :: SCC energy               -32.076653638469 Eh    ::
         :: -> dispersion             -0.024315247988 Eh    ::
         :: repulsion energy           0.520996676736 Eh    ::

    * Orbital Energies and Occupations

         #    Occupation            Energy/Eh            Energy/eV
      -------------------------------------------------------------
         1        2.0000           -0.6588105             -17.9271
       ...           ...                  ...                  ...
        18        2.0000           -0.4752346             -12.9318
        19        2.0000           -0.4741803             -12.9031
        20        2.0000           -0.4670907             -12.7102
        21        2.0000           -0.4609835             -12.5440
        22        2.0000           -0.4564798             -12.4214
        23        2.0000           -0.4433578             -12.0644
        24        2.0000           -0.4383578             -11.9283
        25        2.0000           -0.4241238             -11.5410
        26        2.0000           -0.4159803             -11.3194
        27        2.0000           -0.4075127             -11.0890
        28        2.0000           -0.4028173             -10.9612
        29        2.0000           -0.3996864             -10.8760
        30        2.0000           -0.3639563              -9.9038 (HOMO)
        31                         -0.2299332              -6.2568 (LUMO)
        32                         -0.2214880              -6.0270
        33                         -0.1555275              -4.2321
        34                         -0.1499173              -4.0795
        35                         -0.0931535              -2.5348
        36                          0.0042084               0.1145
        37                          0.0487802               1.3274
        38                          0.0970444               2.6407
        39                          0.1137917               3.0964
        40                          0.1210470               3.2939
        41                          0.1303855               3.5480
       ...                                ...                  ...
        64                          0.7751203              21.0921
      -------------------------------------------------------------
                  HL-Gap            0.1340232 Eh            3.6470 eV

     #   Z          covCN         q      C6AA      α(0)
     1  15 P        3.025    -0.112   165.320    23.098
     2   6 C        3.748    -0.046    21.463     6.608
     3   1 H        0.926     0.040     2.443     2.444
     4   1 H        0.925     0.046     2.367     2.406
     5   6 C        3.819    -0.098    22.345     6.727
     6   1 H        0.925     0.041     2.435     2.440
     7   1 H        0.925     0.039     2.467     2.456
     8   1 H        0.925     0.031     2.569     2.507
     9   6 C        2.915     0.012    27.747     8.638
    10   6 C        3.028    -0.030    28.724     8.791
    11   6 C        2.958    -0.033    28.824     8.806
    12   6 C        2.918    -0.030    28.752     8.793
    13   6 C        2.920    -0.031    28.784     8.798
    14   6 C        2.920    -0.031    28.778     8.797
    15   1 H        0.925     0.034     2.530     2.487
    16   1 H        0.926     0.036     2.505     2.475
    17   1 H        0.926     0.028     2.608     2.526
    18   1 H        0.926     0.027     2.628     2.535
    19   1 H        0.926     0.028     2.618     2.530
    20   6 C        3.748    -0.046    21.465     6.608
    21   1 H        0.926     0.040     2.451     2.448
    22   1 H        0.926     0.042     2.424     2.435
    23   6 C        3.781    -0.096    22.349     6.735
    24   1 H        0.925     0.037     2.485     2.465
    25   1 H        0.925     0.038     2.472     2.459
    26   1 H        0.925     0.033     2.539     2.492

Wiberg/Mayer (AO) data.
largest (>0.10) Wiberg bond orders for each atom

     #   Z sym  total        # sym  WBO       # sym  WBO       # sym  WBO
 ---------------------------------------------------------------------------
     1  15 P    3.375 --     2 C    1.029     9 C    1.019    20 C    1.013
     2   6 C    3.994 --     1 P    1.029     5 C    1.016     3 H    0.956
                             4 H    0.950
     3   1 H    0.998 --     2 C    0.956
     4   1 H    0.998 --     2 C    0.950
     5   6 C    3.997 --     2 C    1.016     6 H    0.985     8 H    0.985
                             7 H    0.983
     6   1 H    0.998 --     5 C    0.985
     7   1 H    0.998 --     5 C    0.983
     8   1 H    0.999 --     5 C    0.985
     9   6 C    3.982 --    11 C    1.404    10 C    1.389     1 P    1.019
                            14 C    0.106
    10   6 C    3.992 --    12 C    1.457     9 C    1.389    15 H    0.962
                            13 C    0.110
    11   6 C    3.993 --    13 C    1.439     9 C    1.404    16 H    0.961
                            12 C    0.107
    12   6 C    3.991 --    10 C    1.457    14 C    1.427    17 H    0.970
                            11 C    0.107
    13   6 C    3.993 --    14 C    1.442    11 C    1.439    18 H    0.970
                            10 C    0.110
    14   6 C    3.992 --    13 C    1.442    12 C    1.427    19 H    0.971
                             9 C    0.106
    15   1 H    0.999 --    10 C    0.962
    16   1 H    0.999 --    11 C    0.961
    17   1 H    0.999 --    12 C    0.970
    18   1 H    0.999 --    13 C    0.970
    19   1 H    0.998 --    14 C    0.971
    20   6 C    3.994 --     1 P    1.013    23 C    1.012    21 H    0.957
                            22 H    0.956
    21   1 H    0.998 --    20 C    0.957
    22   1 H    0.998 --    20 C    0.956
    23   6 C    3.997 --    20 C    1.012    24 H    0.985    25 H    0.983
                            26 H    0.983
    24   1 H    0.999 --    23 C    0.985
    25   1 H    0.999 --    23 C    0.983
    26   1 H    0.999 --    23 C    0.983
 ---------------------------------------------------------------------------

molecular dipole:
                 x           y           z       tot (Debye)
 q only:        0.068       0.274       0.154
   full:       -0.055       0.484       0.433       1.657

 projected vibrational frequencies (cm⁻¹)
eigval :       -0.00    -0.00    -0.00     0.00     0.00     0.00
eigval :       24.19    66.55    88.73   113.62   161.80   172.21
eigval :      200.35   222.09   249.41   265.24   311.91   362.34
eigval :      366.96   391.47   474.30   585.81   648.41   659.48
eigval :      679.40   689.54   737.04   760.39   769.88   872.64
eigval :      895.81   925.78   931.50   967.51   983.08   995.41
eigval :     1013.72  1017.27  1063.82  1077.63  1085.13  1115.17
eigval :     1123.71  1181.85  1204.08  1223.42  1230.42  1251.43
eigval :     1267.97  1280.64  1317.18  1408.00  1412.87  1421.34
eigval :     1449.40  1452.21  1461.32  1496.45  1499.41  1505.31
eigval :     1505.98  1577.83  1589.10  2936.36  2941.65  2950.25
eigval :     2956.69  3011.53  3012.18  3023.89  3025.89  3034.58
eigval :     3041.41  3056.81  3067.70  3074.45  3086.85  3094.20

   temp. (K)  partition function   enthalpy   heat capacity  entropy
                                   cal/mol     cal/K/mol   cal/K/mol   J/K/mol
 298.15  VIB  0.138E+05             6110.625     39.505     37.222
         ROT  0.116E+07              888.752      2.981     30.725
         INT  0.159E+11             6999.377     42.486     67.947
         TR   0.207E+28             1481.254      4.968     41.214
         TOT                        8480.6310    47.4537   109.1604   456.7270

       T/K    H(0)-H(T)+PV         H(T)/Eh          T*S/Eh         G(T)/Eh
   ------------------------------------------------------------------------
    298.15    0.135147E-01    0.232492E+00    0.518656E-01    0.180627E+00
   ------------------------------------------------------------------------

         :::::::::::::::::::::::::::::::::::::::::::::::::::::
         ::                  THERMODYNAMIC                  ::
         :::::::::::::::::::::::::::::::::::::::::::::::::::::
         :: total free energy         -31.375030450692 Eh   ::
         ::.................................................::
         :: total energy              -31.555656961733 Eh   ::
         :: zero point energy           0.218977381967 Eh   ::
         :: G(RRHO) w/o ZPVE           -0.038350870925 Eh   ::
         :: G(RRHO) contrib.            0.180626511041 Eh   ::
         :::::::::::::::::::::::::::::::::::::::::::::::::::::

           -------------------------------------------------
          | TOTAL ENERGY              -31.555656961733 Eh   |
          | TOTAL ENTHALPY            -31.323164834092 Eh   |
          | TOTAL FREE ENERGY         -31.375030450692 Eh   |
          | GRADIENT NORM               0.000049654108 Eh/α |
          | HOMO-LUMO GAP               3.646956066264 eV   |
           -------------------------------------------------

 * finished run on 2025/07/14 at 11:30:23.608
