   * xtb version 6.7.0 (08769fc) compiled by 'albert@albert-system' on 2024-03-04

   ID    Z sym.   atoms
    1   15 P      1
    2    6 C      2, 5, 9-14, 20, 23
    3    1 H      3, 4, 6-8, 15-19, 21, 22, 24-26

          program call               : /home/minenky/programs/xtb/xtb-dist/bin/xtb m1_00_PEt2Ph-PBE0-D3-TZ-uniMM_20.xyz --charge 0 --T --ohess extreme --cycles 5000 --acc 0.01 --iterations 5000
          :  Hamiltonian                  GFN2-xTB          :
 * total energy  :   -31.5500285 Eh     change       -0.7105427E-13 Eh
 * total energy  :   -31.5518684 Eh     change       -0.1839889E-02 Eh
 * total energy  :   -31.5522808 Eh     change       -0.4124689E-03 Eh
 * total energy  :   -31.5524186 Eh     change       -0.1377500E-03 Eh
 * total energy  :   -31.5525747 Eh     change       -0.1561048E-03 Eh
 * total energy  :   -31.5527386 Eh     change       -0.1639165E-03 Eh
 * total energy  :   -31.5529545 Eh     change       -0.2159470E-03 Eh
 * total energy  :   -31.5532355 Eh     change       -0.2809554E-03 Eh
 * total energy  :   -31.5535647 Eh     change       -0.3291524E-03 Eh
 * total energy  :   -31.5538918 Eh     change       -0.3271519E-03 Eh
 * total energy  :   -31.5556516 Eh     change       -0.1049385E-05 Eh
 * total energy  :   -31.5556526 Eh     change       -0.9760506E-06 Eh
 * total energy  :   -31.5556534 Eh     change       -0.8609788E-06 Eh
 * total energy  :   -31.5556542 Eh     change       -0.7879185E-06 Eh
 * total energy  :   -31.5556549 Eh     change       -0.6871349E-06 Eh
 * total energy  :   -31.5556555 Eh     change       -0.6048735E-06 Eh
 * total energy  :   -31.5556561 Eh     change       -0.5336147E-06 Eh
 * total energy  :   -31.5556566 Eh     change       -0.5457948E-06 Eh
 * total energy  :   -31.5556566 Eh     change       -0.3705487E-08 Eh
   *** GEOMETRY OPTIMIZATION CONVERGED AFTER 94 ITERATIONS ***

 final structure:
================
26
 xtb: 6.7.0 (08769fc)
P            1.54852776039359       -0.19031500179216       -3.27029449578079
C            3.35653684591859        0.06504749374563       -2.89301480616292
H            3.86291909472839        0.13163067935148       -3.86067604213187
H            3.51526051214163        1.00543670587794       -2.36063775898880
C            3.92381446299185       -1.11067796309811       -2.10563793663349
H            3.81174549424654       -2.03179640556755       -2.67378134198287
H            3.40073475842317       -1.23791903447958       -1.15978849621305
H            4.98232163470774       -0.95943129668099       -1.89796643744683
C            0.72043546859148        0.57933433119512       -1.82377444123444
C           -0.65814132844603        0.75379725136172       -1.93419901142721
C            1.34102376754752        0.91743516376146       -0.62778368191444
C           -1.39035226163725        1.29469860950111       -0.89590399374431
C            0.60542858280054        1.45350868393965        0.41566057175284
C           -0.75758566403109        1.65094142177042        0.28432592674710
H           -1.15473560847171        0.45960835047464       -2.84920663311982
H            2.40190415584484        0.76968912697353       -0.49555796031087
H           -2.45666555907473        1.43411140002697       -1.00217862259185
H            1.10290353615057        1.71794903743135        1.33817675033471
H           -1.32639116809192        2.07254391356303        1.10009825947571
C            1.30199972770491        1.20532655179449       -4.48931757115963
H            1.84603595768155        0.91952499946333       -5.39448762128721
H            0.23795882878820        1.20616265334138       -4.74111777515360
C            1.72467507436699        2.59441285397248       -4.03147914309609
H            2.80107527320148        2.65349153297113       -3.89142098332625
H            1.23718972574158        2.85602948481521       -3.09395665515581
H            1.44201692778192        3.33166245628635       -4.78160009944811

          :  Hamiltonian                  GFN2-xTB          :
         :: gradient norm              0.000049618478 Eh/a0 ::
         :: HOMO-LUMO gap              3.646953901683 eV    ::
         :: SCC energy               -32.076651069717 Eh    ::
         :: -> dispersion             -0.024314723483 Eh    ::
         :: repulsion energy           0.520994462979 Eh    ::

    * Orbital Energies and Occupations

         #    Occupation            Energy/Eh            Energy/eV
      -------------------------------------------------------------
         1        2.0000           -0.6588106             -17.9271
       ...           ...                  ...                  ...
        18        2.0000           -0.4752329             -12.9317
        19        2.0000           -0.4741813             -12.9031
        20        2.0000           -0.4670913             -12.7102
        21        2.0000           -0.4609800             -12.5439
        22        2.0000           -0.4564820             -12.4215
        23        2.0000           -0.4433531             -12.0643
        24        2.0000           -0.4383595             -11.9284
        25        2.0000           -0.4241262             -11.5411
        26        2.0000           -0.4159773             -11.3193
        27        2.0000           -0.4075176             -11.0891
        28        2.0000           -0.4028153             -10.9612
        29        2.0000           -0.3996889             -10.8761
        30        2.0000           -0.3639545              -9.9037 (HOMO)
        31                         -0.2299314              -6.2568 (LUMO)
        32                         -0.2214870              -6.0270
        33                         -0.1555428              -4.2325
        34                         -0.1499135              -4.0794
        35                         -0.0931559              -2.5349
        36                          0.0042092               0.1145
        37                          0.0487761               1.3273
        38                          0.0970238               2.6402
        39                          0.1138031               3.0967
        40                          0.1210559               3.2941
        41                          0.1303863               3.5480
       ...                                ...                  ...
        64                          0.7750788              21.0910
      -------------------------------------------------------------
                  HL-Gap            0.1340231 Eh            3.6470 eV

     #   Z          covCN         q      C6AA      α(0)
     1  15 P        3.025    -0.112   165.318    23.098
     2   6 C        3.748    -0.046    21.463     6.608
     3   1 H        0.926     0.040     2.443     2.444
     4   1 H        0.925     0.046     2.367     2.406
     5   6 C        3.819    -0.098    22.345     6.727
     6   1 H        0.925     0.041     2.435     2.440
     7   1 H        0.925     0.039     2.467     2.456
     8   1 H        0.925     0.031     2.569     2.507
     9   6 C        2.915     0.012    27.747     8.638
    10   6 C        3.028    -0.030    28.724     8.791
    11   6 C        2.958    -0.033    28.824     8.806
    12   6 C        2.918    -0.030    28.752     8.793
    13   6 C        2.920    -0.031    28.784     8.798
    14   6 C        2.920    -0.031    28.778     8.797
    15   1 H        0.925     0.034     2.530     2.487
    16   1 H        0.926     0.036     2.505     2.475
    17   1 H        0.926     0.028     2.608     2.526
    18   1 H        0.926     0.027     2.628     2.535
    19   1 H        0.926     0.028     2.618     2.530
    20   6 C        3.748    -0.046    21.465     6.608
    21   1 H        0.926     0.040     2.451     2.448
    22   1 H        0.926     0.042     2.424     2.435
    23   6 C        3.781    -0.096    22.349     6.735
    24   1 H        0.925     0.037     2.485     2.465
    25   1 H        0.925     0.038     2.472     2.459
    26   1 H        0.925     0.033     2.539     2.492

Wiberg/Mayer (AO) data.
largest (>0.10) Wiberg bond orders for each atom

     #   Z sym  total        # sym  WBO       # sym  WBO       # sym  WBO
 ---------------------------------------------------------------------------
     1  15 P    3.375 --     2 C    1.029     9 C    1.019    20 C    1.013
     2   6 C    3.994 --     1 P    1.029     5 C    1.016     3 H    0.956
                             4 H    0.950
     3   1 H    0.998 --     2 C    0.956
     4   1 H    0.998 --     2 C    0.950
     5   6 C    3.997 --     2 C    1.016     6 H    0.985     8 H    0.985
                             7 H    0.983
     6   1 H    0.998 --     5 C    0.985
     7   1 H    0.998 --     5 C    0.983
     8   1 H    0.999 --     5 C    0.985
     9   6 C    3.982 --    11 C    1.404    10 C    1.389     1 P    1.019
                            14 C    0.106
    10   6 C    3.992 --    12 C    1.457     9 C    1.389    15 H    0.962
                            13 C    0.110
    11   6 C    3.993 --    13 C    1.439     9 C    1.404    16 H    0.961
                            12 C    0.107
    12   6 C    3.991 --    10 C    1.457    14 C    1.427    17 H    0.970
                            11 C    0.107
    13   6 C    3.993 --    14 C    1.442    11 C    1.439    18 H    0.970
                            10 C    0.110
    14   6 C    3.992 --    13 C    1.442    12 C    1.427    19 H    0.971
                             9 C    0.106
    15   1 H    0.999 --    10 C    0.962
    16   1 H    0.999 --    11 C    0.961
    17   1 H    0.999 --    12 C    0.970
    18   1 H    0.999 --    13 C    0.970
    19   1 H    0.999 --    14 C    0.971
    20   6 C    3.994 --     1 P    1.013    23 C    1.012    21 H    0.957
                            22 H    0.956
    21   1 H    0.998 --    20 C    0.957
    22   1 H    0.998 --    20 C    0.956
    23   6 C    3.997 --    20 C    1.012    24 H    0.985    25 H    0.983
                            26 H    0.983
    24   1 H    0.999 --    23 C    0.985
    25   1 H    0.999 --    23 C    0.983
    26   1 H    0.999 --    23 C    0.983
 ---------------------------------------------------------------------------

molecular dipole:
                 x           y           z       tot (Debye)
 q only:        0.209       0.237      -0.061
   full:        0.297       0.578       0.055       1.656

 projected vibrational frequencies (cm⁻¹)
eigval :       -0.00    -0.00    -0.00     0.00     0.00     0.00
eigval :       24.08    66.59    88.83   113.57   161.89   172.27
eigval :      200.45   222.13   249.47   265.31   311.89   362.35
eigval :      366.96   391.38   474.31   585.82   648.44   659.45
eigval :      679.34   689.58   737.05   760.39   769.90   872.63
eigval :      895.80   925.77   931.49   967.52   983.13   995.46
eigval :     1013.72  1017.25  1063.82  1077.65  1085.14  1115.17
eigval :     1123.70  1181.85  1204.07  1223.49  1230.45  1251.47
eigval :     1267.97  1280.65  1317.18  1408.05  1412.94  1421.37
eigval :     1449.55  1452.23  1461.10  1496.38  1499.38  1505.27
eigval :     1505.92  1577.83  1589.13  2936.36  2941.60  2950.21
eigval :     2956.75  3011.47  3012.18  3023.91  3025.95  3034.60
eigval :     3041.57  3056.78  3067.63  3074.47  3086.85  3094.24

   temp. (K)  partition function   enthalpy   heat capacity  entropy
                                   cal/mol     cal/K/mol   cal/K/mol   J/K/mol
 298.15  VIB  0.138E+05             6110.300     39.504     37.220
         ROT  0.116E+07              888.752      2.981     30.725
         INT  0.160E+11             6999.053     42.485     67.945
         TR   0.207E+28             1481.254      4.968     41.214
         TOT                        8480.3065    47.4530   109.1583   456.7184

       T/K    H(0)-H(T)+PV         H(T)/Eh          T*S/Eh         G(T)/Eh
   ------------------------------------------------------------------------
    298.15    0.135142E-01    0.232493E+00    0.518646E-01    0.180628E+00
   ------------------------------------------------------------------------

         :::::::::::::::::::::::::::::::::::::::::::::::::::::
         ::                  THERMODYNAMIC                  ::
         :::::::::::::::::::::::::::::::::::::::::::::::::::::
         :: total free energy         -31.375028231384 Eh   ::
         ::.................................................::
         :: total energy              -31.555656606738 Eh   ::
         :: zero point energy           0.218978789545 Eh   ::
         :: G(RRHO) w/o ZPVE           -0.038350414192 Eh   ::
         :: G(RRHO) contrib.            0.180628375354 Eh   ::
         :::::::::::::::::::::::::::::::::::::::::::::::::::::

           -------------------------------------------------
          | TOTAL ENERGY              -31.555656606738 Eh   |
          | TOTAL ENTHALPY            -31.323163588536 Eh   |
          | TOTAL FREE ENERGY         -31.375028231384 Eh   |
          | GRADIENT NORM               0.000049618527 Eh/α |
          | HOMO-LUMO GAP               3.646953961438 eV   |
           -------------------------------------------------

 * finished run on 2025/07/14 at 11:28:10.361
