   * xtb version 6.7.0 (08769fc) compiled by 'albert@albert-system' on 2024-03-04

   ID    Z sym.   atoms
    1   15 P      1
    2    6 C      2, 5, 9-14, 20, 23
    3    1 H      3, 4, 6-8, 15-19, 21, 22, 24-26

          program call               : /home/minenky/programs/xtb/xtb-dist/bin/xtb m1_00_PEt2Ph-PBE0-D3-TZ-uniMM_66.xyz --charge 0 --T --ohess extreme --cycles 5000 --acc 0.01 --iterations 5000
          :  Hamiltonian                  GFN2-xTB          :
 * total energy  :   -31.5353341 Eh     change       -0.3126388E-12 Eh
 * total energy  :   -31.5453371 Eh     change       -0.1000298E-01 Eh
 * total energy  :   -31.5483692 Eh     change       -0.3032129E-02 Eh
 * total energy  :   -31.5498985 Eh     change       -0.1529326E-02 Eh
 * total energy  :   -31.5506363 Eh     change       -0.7377427E-03 Eh
 * total energy  :   -31.5511103 Eh     change       -0.4739940E-03 Eh
 * total energy  :   -31.5514523 Eh     change       -0.3420219E-03 Eh
 * total energy  :   -31.5516731 Eh     change       -0.2207588E-03 Eh
 * total energy  :   -31.5518048 Eh     change       -0.1317544E-03 Eh
 * total energy  :   -31.5518806 Eh     change       -0.7576578E-04 Eh
 * total energy  :   -31.5559194 Eh     change       -0.3720331E-06 Eh
 * total energy  :   -31.5559198 Eh     change       -0.3586606E-06 Eh
 * total energy  :   -31.5559201 Eh     change       -0.3462299E-06 Eh
 * total energy  :   -31.5559205 Eh     change       -0.3353746E-06 Eh
 * total energy  :   -31.5559208 Eh     change       -0.3251903E-06 Eh
 * total energy  :   -31.5559211 Eh     change       -0.3156768E-06 Eh
 * total energy  :   -31.5559214 Eh     change       -0.3064933E-06 Eh
 * total energy  :   -31.5559217 Eh     change       -0.2973261E-06 Eh
 * total energy  :   -31.5559217 Eh     change       -0.2609106E-08 Eh
   *** GEOMETRY OPTIMIZATION CONVERGED AFTER 185 ITERATIONS ***

 final structure:
================
26
 xtb: 6.7.0 (08769fc)
P            1.79993894586851       -0.06827745361014       -3.02488591104987
C            1.72608537424083        0.74488406622406       -4.70647560876953
H            1.77612224993293        1.82137184541501       -4.52173814887616
H            2.65060651192585        0.47212825354764       -5.22284440318829
C            0.51482024691744        0.42447641205577       -5.57088765459547
H           -0.40858228824885        0.62787166851423       -5.03122018934370
H            0.51272241451384       -0.61776921069181       -5.88030221424763
H            0.52926009095358        1.04053149417896       -6.46898003971912
C            0.12666810141033        0.38726371135089       -2.42554730986149
C           -0.81992607163840       -0.53046250742543       -1.98470730296562
C           -0.15960146870159        1.74662313095862       -2.31179533107323
C           -2.03796035470941       -0.09866155469008       -1.48836660043058
C           -1.37688836740160        2.17677088203522       -1.82122538387482
C           -2.32493630412467        1.25271999114514       -1.41266380693815
H           -0.61579513688378       -1.58956763339942       -2.02378295088448
H            0.58380273125355        2.47217552691437       -2.61237239526553
H           -2.76682689368432       -0.82491929377145       -1.15741027398642
H           -1.58648322836216        3.23460659885410       -1.75142671485354
H           -3.27809483090341        1.58536287439122       -1.02855757891192
C            1.52837981778741       -1.85313828946399       -3.49428003484247
H            1.45829231500286       -2.40966519464698       -2.55505804809776
H            0.58698035256903       -1.97177562317391       -4.03606449932680
C            2.69595033635563       -2.39912194767456       -4.30609511211174
H            3.63551189670450       -2.22214717908605       -3.78572854716917
H            2.75225544144944       -1.92336773579270       -5.28257740689149
H            2.58375111777845       -3.47173583215495       -4.45753953272472

          :  Hamiltonian                  GFN2-xTB          :
         :: gradient norm              0.000041691023 Eh/a0 ::
         :: HOMO-LUMO gap              3.634040905825 eV    ::
         :: SCC energy               -32.077064234357 Eh    ::
         :: -> dispersion             -0.024373754342 Eh    ::
         :: repulsion energy           0.521142509563 Eh    ::

    * Orbital Energies and Occupations

         #    Occupation            Energy/Eh            Energy/eV
      -------------------------------------------------------------
         1        2.0000           -0.6587646             -17.9259
       ...           ...                  ...                  ...
        18        2.0000           -0.4769537             -12.9786
        19        2.0000           -0.4739004             -12.8955
        20        2.0000           -0.4691202             -12.7654
        21        2.0000           -0.4616990             -12.5635
        22        2.0000           -0.4526783             -12.3180
        23        2.0000           -0.4452522             -12.1159
        24        2.0000           -0.4394336             -11.9576
        25        2.0000           -0.4248216             -11.5600
        26        2.0000           -0.4141396             -11.2693
        27        2.0000           -0.4080732             -11.1042
        28        2.0000           -0.4026848             -10.9576
        29        2.0000           -0.4007910             -10.9061
        30        2.0000           -0.3633550              -9.8874 (HOMO)
        31                         -0.2298065              -6.2534 (LUMO)
        32                         -0.2214754              -6.0267
        33                         -0.1549836              -4.2173
        34                         -0.1495343              -4.0690
        35                         -0.0932655              -2.5379
        36                          0.0123003               0.3347
        37                          0.0426635               1.1609
        38                          0.1034128               2.8140
        39                          0.1127270               3.0675
        40                          0.1170062               3.1839
        41                          0.1313868               3.5752
       ...                                ...                  ...
        64                          0.7992651              21.7491
      -------------------------------------------------------------
                  HL-Gap            0.1335485 Eh            3.6340 eV

     #   Z          covCN         q      C6AA      α(0)
     1  15 P        3.014    -0.112   165.311    23.098
     2   6 C        3.748    -0.044    21.429     6.603
     3   1 H        0.926     0.042     2.428     2.437
     4   1 H        0.926     0.041     2.435     2.440
     5   6 C        3.780    -0.094    22.321     6.731
     6   1 H        0.925     0.038     2.481     2.463
     7   1 H        0.925     0.038     2.478     2.462
     8   1 H        0.925     0.032     2.561     2.503
     9   6 C        2.915     0.010    27.792     8.645
    10   6 C        2.964    -0.034    28.833     8.808
    11   6 C        3.015    -0.030    28.734     8.793
    12   6 C        2.919    -0.031    28.765     8.795
    13   6 C        2.918    -0.030    28.758     8.794
    14   6 C        2.920    -0.031    28.779     8.797
    15   1 H        0.926     0.033     2.550     2.497
    16   1 H        0.925     0.034     2.535     2.490
    17   1 H        0.926     0.028     2.617     2.530
    18   1 H        0.926     0.029     2.606     2.525
    19   1 H        0.926     0.028     2.612     2.527
    20   6 C        3.748    -0.045    21.450     6.606
    21   1 H        0.926     0.040     2.443     2.444
    22   1 H        0.925     0.047     2.364     2.404
    23   6 C        3.816    -0.097    22.334     6.726
    24   1 H        0.925     0.041     2.432     2.439
    25   1 H        0.925     0.037     2.487     2.466
    26   1 H        0.925     0.032     2.554     2.499

Wiberg/Mayer (AO) data.
largest (>0.10) Wiberg bond orders for each atom

     #   Z sym  total        # sym  WBO       # sym  WBO       # sym  WBO
 ---------------------------------------------------------------------------
     1  15 P    3.379 --    20 C    1.026     9 C    1.020     2 C    1.015
     2   6 C    3.994 --     1 P    1.015     5 C    1.012     4 H    0.956
                             3 H    0.954
     3   1 H    0.998 --     2 C    0.954
     4   1 H    0.998 --     2 C    0.956
     5   6 C    3.997 --     2 C    1.012     7 H    0.984     8 H    0.983
                             6 H    0.983
     6   1 H    0.999 --     5 C    0.983
     7   1 H    0.999 --     5 C    0.984
     8   1 H    0.999 --     5 C    0.983
     9   6 C    3.981 --    10 C    1.401    11 C    1.389     1 P    1.020
                            14 C    0.105
    10   6 C    3.993 --    12 C    1.441     9 C    1.401    15 H    0.963
                            13 C    0.107
    11   6 C    3.992 --    13 C    1.456     9 C    1.389    16 H    0.962
                            12 C    0.109
    12   6 C    3.993 --    10 C    1.441    14 C    1.441    17 H    0.970
                            11 C    0.109
    13   6 C    3.992 --    11 C    1.456    14 C    1.428    18 H    0.970
                            10 C    0.107
    14   6 C    3.991 --    12 C    1.441    13 C    1.428    19 H    0.971
                             9 C    0.105
    15   1 H    0.999 --    10 C    0.963
    16   1 H    0.999 --    11 C    0.962
    17   1 H    0.999 --    12 C    0.970
    18   1 H    0.999 --    13 C    0.970
    19   1 H    0.999 --    14 C    0.971
    20   6 C    3.995 --     1 P    1.026    23 C    1.015    21 H    0.956
                            22 H    0.951
    21   1 H    0.998 --    20 C    0.956
    22   1 H    0.998 --    20 C    0.951
    23   6 C    3.996 --    20 C    1.015    26 H    0.984    24 H    0.984
                            25 H    0.984
    24   1 H    0.998 --    23 C    0.984
    25   1 H    0.999 --    23 C    0.984
    26   1 H    0.999 --    23 C    0.984
 ---------------------------------------------------------------------------

molecular dipole:
                 x           y           z       tot (Debye)
 q only:       -0.067      -0.137      -0.318
   full:       -0.369      -0.208      -0.510       1.683

 projected vibrational frequencies (cm⁻¹)
eigval :       -0.00    -0.00    -0.00     0.00     0.00     0.00
eigval :       24.83    72.36    84.43   127.24   130.46   200.63
eigval :      204.70   228.81   262.55   277.61   283.53   358.31
eigval :      362.89   404.12   473.61   585.98   637.95   656.83
eigval :      683.15   704.32   729.80   746.36   790.99   870.65
eigval :      894.00   924.88   931.02   968.47   974.85   998.69
eigval :     1012.92  1021.93  1065.69  1073.36  1086.19  1115.64
eigval :     1123.72  1181.99  1203.71  1225.81  1227.52  1252.00
eigval :     1266.73  1282.83  1316.81  1408.68  1410.85  1421.65
eigval :     1451.21  1456.55  1462.12  1497.16  1501.20  1505.37
eigval :     1507.96  1577.20  1588.99  2938.65  2942.19  2948.75
eigval :     2961.40  3011.21  3013.08  3024.75  3024.86  3035.11
eigval :     3039.50  3061.35  3068.51  3075.03  3087.08  3093.94

   temp. (K)  partition function   enthalpy   heat capacity  entropy
                                   cal/mol     cal/K/mol   cal/K/mol   J/K/mol
 298.15  VIB  0.122E+05             6085.991     39.518     36.992
         ROT  0.113E+07              888.752      2.981     30.681
         INT  0.138E+11             6974.744     42.499     67.673
         TR   0.207E+28             1481.254      4.968     41.214
         TOT                        8455.9975    47.4669   108.8863   455.5802

       T/K    H(0)-H(T)+PV         H(T)/Eh          T*S/Eh         G(T)/Eh
   ------------------------------------------------------------------------
    298.15    0.134755E-01    0.232556E+00    0.517354E-01    0.180821E+00
   ------------------------------------------------------------------------

         :::::::::::::::::::::::::::::::::::::::::::::::::::::
         ::                  THERMODYNAMIC                  ::
         :::::::::::::::::::::::::::::::::::::::::::::::::::::
         :: total free energy         -31.375101182354 Eh   ::
         ::.................................................::
         :: total energy              -31.555921724794 Eh   ::
         :: zero point energy           0.219080434531 Eh   ::
         :: G(RRHO) w/o ZPVE           -0.038259892091 Eh   ::
         :: G(RRHO) contrib.            0.180820542440 Eh   ::
         :::::::::::::::::::::::::::::::::::::::::::::::::::::

           -------------------------------------------------
          | TOTAL ENERGY              -31.555921724794 Eh   |
          | TOTAL ENTHALPY            -31.323365800455 Eh   |
          | TOTAL FREE ENERGY         -31.375101182354 Eh   |
          | GRADIENT NORM               0.000041691096 Eh/α |
          | HOMO-LUMO GAP               3.634040863930 eV   |
           -------------------------------------------------

 * finished run on 2025/07/14 at 11:37:26.071
