   * xtb version 6.7.0 (08769fc) compiled by 'albert@albert-system' on 2024-03-04

   ID    Z sym.   atoms
    1   15 P      1
    2    6 C      2, 5, 9-14, 20, 23
    3    1 H      3, 4, 6-8, 15-19, 21, 22, 24-26

          program call               : /home/minenky/programs/xtb/xtb-dist/bin/xtb m1_00_PEt2Ph-PBE0-D3-TZ-uniMM_56.xyz --charge 0 --T --ohess extreme --cycles 5000 --acc 0.01 --iterations 5000
          :  Hamiltonian                  GFN2-xTB          :
 * total energy  :   -31.5352768 Eh     change       -0.9237056E-13 Eh
 * total energy  :   -31.5419577 Eh     change       -0.6680847E-02 Eh
 * total energy  :   -31.5449334 Eh     change       -0.2975698E-02 Eh
 * total energy  :   -31.5465916 Eh     change       -0.1658241E-02 Eh
 * total energy  :   -31.5477462 Eh     change       -0.1154636E-02 Eh
 * total energy  :   -31.5489123 Eh     change       -0.1166020E-02 Eh
 * total energy  :   -31.5498980 Eh     change       -0.9857582E-03 Eh
 * total energy  :   -31.5506647 Eh     change       -0.7666505E-03 Eh
 * total energy  :   -31.5514123 Eh     change       -0.7476480E-03 Eh
 * total energy  :   -31.5523914 Eh     change       -0.9790736E-03 Eh
 * total energy  :   -31.5570215 Eh     change       -0.5088413E-06 Eh
 * total energy  :   -31.5570214 Eh     change        0.1203696E-06 Eh
 * total energy  :   -31.5570217 Eh     change       -0.3199661E-06 Eh
 * total energy  :   -31.5570218 Eh     change       -0.1125484E-06 Eh
 * total energy  :   -31.5570218 Eh     change        0.6963674E-09 Eh
 * total energy  :   -31.5570220 Eh     change       -0.1547549E-06 Eh
 * total energy  :   -31.5570220 Eh     change       -0.8835077E-08 Eh
 * total energy  :   -31.5570220 Eh     change       -0.6881968E-07 Eh
 * total energy  :   -31.5570221 Eh     change       -0.1991379E-07 Eh
   *** GEOMETRY OPTIMIZATION CONVERGED AFTER 42 ITERATIONS ***

 final structure:
================
26
 xtb: 6.7.0 (08769fc)
P            1.58859702590996       -0.54502841819442       -2.96857659997350
C           -0.17730344348013       -0.35884378313084       -2.39343888423371
H           -0.58603406432492        0.51575932806799       -2.90792810151448
H           -0.76820048723744       -1.23092945182543       -2.68547332554363
C           -0.23864907952367       -0.15359131334142       -0.88623484988551
H            0.34997154394663        0.71468491515322       -0.59651150484458
H            0.16159857537077       -1.02347656659734       -0.36750000014606
H           -1.26588726898546        0.00102938963664       -0.56008558445723
C            1.97348957939366       -2.18073543301421       -2.21469004039931
C            1.17974621583840       -3.31333377661474       -2.35392783028401
C            3.13861684648149       -2.26392875056870       -1.46043288817870
C            1.54678574276245       -4.50190971886596       -1.75046719306793
C            3.50655023204754       -3.45256381804479       -0.85581413070106
C            2.70949615069660       -4.57495905907018       -1.00065958381464
H            0.26878177114473       -3.27660475578394       -2.93474428398716
H            3.75539005257144       -1.38222413921974       -1.35291760601536
H            0.92282358133222       -5.37719251279568       -1.86498740174582
H            4.41427498091729       -3.50432867168269       -0.27196680974471
H            2.99186100351540       -5.50599932726652       -0.53102662871737
C            1.23034262823282       -1.09162708660378       -4.71684830485829
H            0.45610210935546       -1.86321099868150       -4.72631776700714
H            0.84243669009054       -0.21647200704529       -5.24640913797750
C            2.49474300013588       -1.59557002075928       -5.39868636288803
H            2.88252095520540       -2.47181585173110       -4.88115322706057
H            3.26484770721589       -0.82667851174564       -5.38750954717925
H            2.29228795138768       -1.86668066027010       -6.43359940577614

          :  Hamiltonian                  GFN2-xTB          :
         :: gradient norm              0.000036379681 Eh/a0 ::
         :: HOMO-LUMO gap              3.636761006647 eV    ::
         :: SCC energy               -32.077685041647 Eh    ::
         :: -> dispersion             -0.024033385191 Eh    ::
         :: repulsion energy           0.520662984096 Eh    ::

    * Orbital Energies and Occupations

         #    Occupation            Energy/Eh            Energy/eV
      -------------------------------------------------------------
         1        2.0000           -0.6581225             -17.9084
       ...           ...                  ...                  ...
        18        2.0000           -0.4773502             -12.9894
        19        2.0000           -0.4746472             -12.9158
        20        2.0000           -0.4704178             -12.8007
        21        2.0000           -0.4563108             -12.4169
        22        2.0000           -0.4562112             -12.4141
        23        2.0000           -0.4423001             -12.0356
        24        2.0000           -0.4364987             -11.8777
        25        2.0000           -0.4232569             -11.5174
        26        2.0000           -0.4194605             -11.4141
        27        2.0000           -0.4052670             -11.0279
        28        2.0000           -0.4045287             -11.0078
        29        2.0000           -0.3970081             -10.8031
        30        2.0000           -0.3672862              -9.9944 (HOMO)
        31                         -0.2336377              -6.3576 (LUMO)
        32                         -0.2230331              -6.0690
        33                         -0.1548901              -4.2148
        34                         -0.1507300              -4.1016
        35                         -0.0927999              -2.5252
        36                          0.0045716               0.1244
        37                          0.0548632               1.4929
        38                          0.0923457               2.5129
        39                          0.1108978               3.0177
        40                          0.1352357               3.6800
        41                          0.1375501               3.7429
       ...                                ...                  ...
        64                          0.7795369              21.2123
      -------------------------------------------------------------
                  HL-Gap            0.1336485 Eh            3.6368 eV

     #   Z          covCN         q      C6AA      α(0)
     1  15 P        3.056    -0.118   165.594    23.117
     2   6 C        3.748    -0.047    21.475     6.610
     3   1 H        0.926     0.039     2.468     2.457
     4   1 H        0.925     0.042     2.418     2.432
     5   6 C        3.821    -0.096    22.317     6.723
     6   1 H        0.925     0.042     2.428     2.437
     7   1 H        0.925     0.036     2.501     2.473
     8   1 H        0.925     0.033     2.546     2.495
     9   6 C        2.916     0.011    27.768     8.641
    10   6 C        2.961    -0.027    28.681     8.784
    11   6 C        3.016    -0.030    28.728     8.792
    12   6 C        2.919    -0.031    28.784     8.798
    13   6 C        2.918    -0.030    28.749     8.793
    14   6 C        2.920    -0.029    28.734     8.790
    15   1 H        0.926     0.032     2.564     2.504
    16   1 H        0.925     0.040     2.451     2.448
    17   1 H        0.926     0.028     2.619     2.531
    18   1 H        0.926     0.030     2.588     2.516
    19   1 H        0.926     0.029     2.603     2.523
    20   6 C        3.748    -0.047    21.474     6.610
    21   1 H        0.925     0.042     2.420     2.433
    22   1 H        0.926     0.038     2.469     2.457
    23   6 C        3.821    -0.096    22.316     6.723
    24   1 H        0.925     0.036     2.501     2.473
    25   1 H        0.925     0.042     2.428     2.437
    26   1 H        0.925     0.033     2.546     2.495

Wiberg/Mayer (AO) data.
largest (>0.10) Wiberg bond orders for each atom

     #   Z sym  total        # sym  WBO       # sym  WBO       # sym  WBO
 ---------------------------------------------------------------------------
     1  15 P    3.349 --    20 C    1.025     2 C    1.024     9 C    1.007
     2   6 C    3.993 --     1 P    1.024     5 C    1.017     3 H    0.958
                             4 H    0.951
     3   1 H    0.998 --     2 C    0.958
     4   1 H    0.998 --     2 C    0.951
     5   6 C    3.995 --     2 C    1.017     6 H    0.985     8 H    0.984
                             7 H    0.984
     6   1 H    0.998 --     5 C    0.985
     7   1 H    0.999 --     5 C    0.984
     8   1 H    0.999 --     5 C    0.984
     9   6 C    3.983 --    11 C    1.408    10 C    1.400     1 P    1.007
                            14 C    0.108
    10   6 C    3.993 --    12 C    1.450     9 C    1.400    15 H    0.961
                            13 C    0.111
    11   6 C    3.992 --    13 C    1.443     9 C    1.408    16 H    0.964
                            12 C    0.108
    12   6 C    3.993 --    10 C    1.450    14 C    1.432    17 H    0.970
                            11 C    0.108
    13   6 C    3.992 --    11 C    1.443    14 C    1.441    18 H    0.970
                            10 C    0.111
    14   6 C    3.985 --    13 C    1.441    12 C    1.432    19 H    0.971
                             9 C    0.108
    15   1 H    0.999 --    10 C    0.961
    16   1 H    0.998 --    11 C    0.964
    17   1 H    0.999 --    12 C    0.970
    18   1 H    0.999 --    13 C    0.970
    19   1 H    0.999 --    14 C    0.971
    20   6 C    3.993 --     1 P    1.025    23 C    1.017    22 H    0.958
                            21 H    0.951
    21   1 H    0.998 --    20 C    0.951
    22   1 H    0.998 --    20 C    0.958
    23   6 C    3.995 --    20 C    1.017    25 H    0.985    26 H    0.985
                            24 H    0.984
    24   1 H    0.999 --    23 C    0.984
    25   1 H    0.998 --    23 C    0.985
    26   1 H    0.999 --    23 C    0.985
 ---------------------------------------------------------------------------

molecular dipole:
                 x           y           z       tot (Debye)
 q only:       -0.187      -0.130      -0.071
   full:       -0.440      -0.452      -0.123       1.633

 projected vibrational frequencies (cm⁻¹)
eigval :       -0.00    -0.00     0.00     0.00     0.00     0.00
eigval :       17.88    50.37    65.06   121.21   122.36   164.29
eigval :      199.67   214.05   232.42   295.30   318.31   320.59
eigval :      363.62   401.30   450.37   586.09   657.50   668.69
eigval :      687.45   704.76   735.17   753.35   780.23   875.02
eigval :      899.16   926.85   932.98   969.38   975.73   998.56
eigval :     1003.55  1020.05  1062.79  1082.80  1085.06  1116.96
eigval :     1121.53  1181.71  1198.85  1217.01  1229.74  1244.54
eigval :     1255.25  1278.93  1315.80  1410.36  1411.05  1423.56
eigval :     1442.63  1449.89  1458.04  1497.18  1497.28  1501.65
eigval :     1501.85  1580.01  1589.61  2931.51  2936.84  2944.78
eigval :     2951.20  3013.79  3014.28  3019.19  3019.44  3029.34
eigval :     3030.46  3061.34  3063.69  3070.71  3076.94  3087.67

   temp. (K)  partition function   enthalpy   heat capacity  entropy
                                   cal/mol     cal/K/mol   cal/K/mol   J/K/mol
 298.15  VIB  0.379E+05             6234.869     39.144     38.699
         ROT  0.118E+07              888.752      2.981     30.762
         INT  0.447E+11             7123.621     42.125     69.461
         TR   0.207E+28             1481.254      4.968     41.214
         TOT                        8604.8748    47.0928   110.6748   463.0633

       T/K    H(0)-H(T)+PV         H(T)/Eh          T*S/Eh         G(T)/Eh
   ------------------------------------------------------------------------
    298.15    0.137127E-01    0.232227E+00    0.525852E-01    0.179642E+00
   ------------------------------------------------------------------------

         :::::::::::::::::::::::::::::::::::::::::::::::::::::
         ::                  THERMODYNAMIC                  ::
         :::::::::::::::::::::::::::::::::::::::::::::::::::::
         :: total free energy         -31.377380438360 Eh   ::
         ::.................................................::
         :: total energy              -31.557022057552 Eh   ::
         :: zero point energy           0.218514043425 Eh   ::
         :: G(RRHO) w/o ZPVE           -0.038872424234 Eh   ::
         :: G(RRHO) contrib.            0.179641619192 Eh   ::
         :::::::::::::::::::::::::::::::::::::::::::::::::::::

           -------------------------------------------------
          | TOTAL ENERGY              -31.557022057552 Eh   |
          | TOTAL ENTHALPY            -31.324795273256 Eh   |
          | TOTAL FREE ENERGY         -31.377380438360 Eh   |
          | GRADIENT NORM               0.000036380191 Eh/α |
          | HOMO-LUMO GAP               3.636761037848 eV   |
           -------------------------------------------------

 * finished run on 2025/07/14 at 11:35:21.626
