   * xtb version 6.7.0 (08769fc) compiled by 'albert@albert-system' on 2024-03-04

   ID    Z sym.   atoms
    1   15 P      1
    2    6 C      2, 5, 9-14, 20, 23
    3    1 H      3, 4, 6-8, 15-19, 21, 22, 24-26

          program call               : /home/minenky/programs/xtb/xtb-dist/bin/xtb m1_00_PEt2Ph-PBE0-D3-TZ-uniMM_25.xyz --charge 0 --T --ohess extreme --cycles 5000 --acc 0.01 --iterations 5000
          :  Hamiltonian                  GFN2-xTB          :
 * total energy  :   -31.5474863 Eh     change       -0.8526513E-13 Eh
 * total energy  :   -31.5518542 Eh     change       -0.4367816E-02 Eh
 * total energy  :   -31.5527218 Eh     change       -0.8675947E-03 Eh
 * total energy  :   -31.5531272 Eh     change       -0.4054282E-03 Eh
 * total energy  :   -31.5532471 Eh     change       -0.1198687E-03 Eh
 * total energy  :   -31.5533287 Eh     change       -0.8168493E-04 Eh
 * total energy  :   -31.5533906 Eh     change       -0.6190659E-04 Eh
 * total energy  :   -31.5534106 Eh     change       -0.1995425E-04 Eh
 * total energy  :   -31.5534405 Eh     change       -0.2986918E-04 Eh
 * total energy  :   -31.5534542 Eh     change       -0.1371614E-04 Eh
 * total energy  :   -31.5535603 Eh     change       -0.1213437E-05 Eh
 * total energy  :   -31.5535607 Eh     change       -0.3501195E-06 Eh
 * total energy  :   -31.5535614 Eh     change       -0.7433939E-06 Eh
 * total energy  :   -31.5535617 Eh     change       -0.3191206E-06 Eh
 * total energy  :   -31.5535619 Eh     change       -0.2027122E-06 Eh
 * total energy  :   -31.5535620 Eh     change       -0.9410743E-07 Eh
 * total energy  :   -31.5535620 Eh     change        0.6241237E-08 Eh
 * total energy  :   -31.5535621 Eh     change       -0.5861418E-07 Eh
 * total energy  :   -31.5535621 Eh     change       -0.4303815E-07 Eh
   *** GEOMETRY OPTIMIZATION CONVERGED AFTER 29 ITERATIONS ***

 final structure:
================
26
 xtb: 6.7.0 (08769fc)
P            1.69889808594240       -0.22102966426472       -3.00808031811287
C            0.47968768292802       -0.03581273705778       -4.40895590429135
H            0.69936008822472       -0.76668060243370       -5.19321494626784
H           -0.51352141538873       -0.24395878859122       -4.00407812086469
C            0.48901304773496        1.38377551795098       -4.96239602050461
H            1.46175702761801        1.64451158621082       -5.37462593965332
H            0.25527700165584        2.09618307912407       -4.17372319313114
H           -0.25263786167203        1.48837543219647       -5.75272931550229
C            1.52538930411536       -2.01161157418777       -2.64198138203146
C            2.57838509887427       -2.62178313968149       -1.96225623286602
C            0.38584605326358       -2.76073545502741       -2.91016569901540
C            2.51350183345420       -3.95252788458551       -1.59888420473910
C            0.32081659348818       -4.09458746485610       -2.54538380359395
C            1.38304030738021       -4.69671287513129       -1.89471789021099
H            3.45781102017780       -2.04181603928698       -1.71839810887478
H           -0.45982112660965       -2.31334527867857       -3.40961882477883
H            3.34327328476163       -4.41062290525640       -1.07972700793450
H           -0.56829383720095       -4.66619611148170       -2.77105275644063
H            1.32837103349782       -5.73797867954772       -1.61286359619638
C            3.27909124596788       -0.31027826927697       -4.02305415236970
H            3.52532747578506       -1.35706646376834       -4.21757683328533
H            3.09130062558864        0.17929238189247       -4.98078713559947
C            4.43739742041826        0.38827388928464       -3.32090002665228
H            4.65422391228658       -0.08003929086240       -2.36316280856183
H            4.19279634882480        1.43222931578788       -3.13536721084630
H            5.33697374888289        0.34682402152875       -3.93348056767471

          :  Hamiltonian                  GFN2-xTB          :
         :: gradient norm              0.000039663488 Eh/a0 ::
         :: HOMO-LUMO gap              3.665471535514 eV    ::
         :: SCC energy               -32.074085494457 Eh    ::
         :: -> dispersion             -0.023366801882 Eh    ::
         :: repulsion energy           0.520523361719 Eh    ::

    * Orbital Energies and Occupations

         #    Occupation            Energy/Eh            Energy/eV
      -------------------------------------------------------------
         1        2.0000           -0.6583885             -17.9157
       ...           ...                  ...                  ...
        18        2.0000           -0.4768845             -12.9767
        19        2.0000           -0.4745694             -12.9137
        20        2.0000           -0.4633608             -12.6087
        21        2.0000           -0.4609513             -12.5431
        22        2.0000           -0.4526817             -12.3181
        23        2.0000           -0.4453407             -12.1183
        24        2.0000           -0.4386819             -11.9371
        25        2.0000           -0.4243695             -11.5477
        26        2.0000           -0.4142260             -11.2717
        27        2.0000           -0.4088774             -11.1261
        28        2.0000           -0.4025478             -10.9539
        29        2.0000           -0.3985774             -10.8458
        30        2.0000           -0.3641649              -9.9094 (HOMO)
        31                         -0.2294613              -6.2440 (LUMO)
        32                         -0.2213331              -6.0228
        33                         -0.1594990              -4.3402
        34                         -0.1527325              -4.1561
        35                         -0.0941193              -2.5611
        36                          0.0005655               0.0154
        37                          0.0608787               1.6566
        38                          0.0877091               2.3867
        39                          0.1129568               3.0737
        40                          0.1189033               3.2355
        41                          0.1334888               3.6324
       ...                                ...                  ...
        64                          0.7773646              21.1532
      -------------------------------------------------------------
                  HL-Gap            0.1347036 Eh            3.6655 eV

     #   Z          covCN         q      C6AA      α(0)
     1  15 P        3.040    -0.098   164.681    23.053
     2   6 C        3.748    -0.048    21.507     6.615
     3   1 H        0.925     0.043     2.412     2.429
     4   1 H        0.926     0.042     2.424     2.435
     5   6 C        3.818    -0.098    22.345     6.727
     6   1 H        0.925     0.036     2.499     2.472
     7   1 H        0.925     0.042     2.416     2.431
     8   1 H        0.925     0.033     2.541     2.493
     9   6 C        2.915     0.006    27.896     8.661
    10   6 C        3.017    -0.031    28.749     8.795
    11   6 C        2.962    -0.034    28.834     8.808
    12   6 C        2.918    -0.030    28.757     8.794
    13   6 C        2.919    -0.030    28.755     8.793
    14   6 C        2.920    -0.031    28.777     8.797
    15   1 H        0.925     0.035     2.513     2.479
    16   1 H        0.926     0.031     2.568     2.506
    17   1 H        0.926     0.029     2.606     2.524
    18   1 H        0.926     0.028     2.612     2.527
    19   1 H        0.926     0.028     2.609     2.526
    20   6 C        3.747    -0.050    21.538     6.619
    21   1 H        0.925     0.042     2.424     2.435
    22   1 H        0.925     0.043     2.407     2.426
    23   6 C        3.808    -0.097    22.347     6.729
    24   1 H        0.925     0.037     2.493     2.469
    25   1 H        0.925     0.041     2.442     2.444
    26   1 H        0.925     0.031     2.571     2.507

Wiberg/Mayer (AO) data.
largest (>0.10) Wiberg bond orders for each atom

     #   Z sym  total        # sym  WBO       # sym  WBO       # sym  WBO
 ---------------------------------------------------------------------------
     1  15 P    3.356 --     2 C    1.025     9 C    1.022    20 C    1.008
     2   6 C    3.994 --     1 P    1.025     5 C    1.016     4 H    0.955
                             3 H    0.954
     3   1 H    0.998 --     2 C    0.954
     4   1 H    0.998 --     2 C    0.955
     5   6 C    3.996 --     2 C    1.016     7 H    0.985     8 H    0.984
                             6 H    0.982
     6   1 H    0.999 --     5 C    0.982
     7   1 H    0.998 --     5 C    0.985
     8   1 H    0.998 --     5 C    0.984
     9   6 C    3.981 --    11 C    1.402    10 C    1.389     1 P    1.022
                            14 C    0.106
    10   6 C    3.992 --    12 C    1.456     9 C    1.389    15 H    0.961
                            13 C    0.109
    11   6 C    3.992 --    13 C    1.441     9 C    1.402    16 H    0.963
                            12 C    0.107
    12   6 C    3.992 --    10 C    1.456    14 C    1.428    17 H    0.970
                            11 C    0.107
    13   6 C    3.993 --    11 C    1.441    14 C    1.441    18 H    0.970
                            10 C    0.109
    14   6 C    3.990 --    13 C    1.441    12 C    1.428    19 H    0.971
                             9 C    0.106
    15   1 H    0.999 --    10 C    0.961
    16   1 H    0.999 --    11 C    0.963
    17   1 H    0.999 --    12 C    0.970
    18   1 H    0.999 --    13 C    0.970
    19   1 H    0.998 --    14 C    0.971
    20   6 C    3.996 --    23 C    1.019     1 P    1.008    21 H    0.958
                            22 H    0.956
    21   1 H    0.998 --    20 C    0.958
    22   1 H    0.998 --    20 C    0.956
    23   6 C    3.997 --    20 C    1.019    25 H    0.985    26 H    0.985
                            24 H    0.983
    24   1 H    0.999 --    23 C    0.983
    25   1 H    0.998 --    23 C    0.985
    26   1 H    0.998 --    23 C    0.985
 ---------------------------------------------------------------------------

molecular dipole:
                 x           y           z       tot (Debye)
 q only:        0.058       0.048      -0.300
   full:        0.070      -0.212      -0.576       1.570

 projected vibrational frequencies (cm⁻¹)
eigval :       -0.00    -0.00     0.00     0.00     0.00     0.00
eigval :       17.85    42.97    83.12   122.34   136.33   169.71
eigval :      197.95   226.62   232.66   268.71   286.30   330.14
eigval :      360.10   406.24   471.55   586.09   651.44   658.16
eigval :      683.95   697.40   734.96   755.83   780.27   868.28
eigval :      892.45   924.04   930.64   968.38   983.40   995.59
eigval :     1011.59  1018.81  1069.58  1075.04  1086.09  1115.54
eigval :     1123.14  1181.80  1202.32  1226.32  1228.55  1250.51
eigval :     1257.12  1283.38  1317.01  1409.14  1413.45  1421.41
eigval :     1442.46  1448.16  1458.65  1497.36  1499.46  1500.73
eigval :     1502.76  1577.45  1589.03  2927.94  2947.97  2956.09
eigval :     2963.20  3012.61  3014.45  3023.95  3024.93  3032.72
eigval :     3033.29  3063.64  3068.79  3075.28  3087.04  3093.52

   temp. (K)  partition function   enthalpy   heat capacity  entropy
                                   cal/mol     cal/K/mol   cal/K/mol   J/K/mol
 298.15  VIB  0.336E+05             6224.415     39.185     38.302
         ROT  0.126E+07              888.752      2.981     30.899
         INT  0.424E+11             7113.168     42.166     69.201
         TR   0.207E+28             1481.254      4.968     41.214
         TOT                        8594.4217    47.1343   110.4146   461.9748

       T/K    H(0)-H(T)+PV         H(T)/Eh          T*S/Eh         G(T)/Eh
   ------------------------------------------------------------------------
    298.15    0.136961E-01    0.232390E+00    0.524615E-01    0.179929E+00
   ------------------------------------------------------------------------

         :::::::::::::::::::::::::::::::::::::::::::::::::::::
         ::                  THERMODYNAMIC                  ::
         :::::::::::::::::::::::::::::::::::::::::::::::::::::
         :: total free energy         -31.373633269506 Eh   ::
         ::.................................................::
         :: total energy              -31.553562132738 Eh   ::
         :: zero point energy           0.218694327969 Eh   ::
         :: G(RRHO) w/o ZPVE           -0.038765464737 Eh   ::
         :: G(RRHO) contrib.            0.179928863232 Eh   ::
         :::::::::::::::::::::::::::::::::::::::::::::::::::::

           -------------------------------------------------
          | TOTAL ENERGY              -31.553562132738 Eh   |
          | TOTAL ENTHALPY            -31.321171722027 Eh   |
          | TOTAL FREE ENERGY         -31.373633269506 Eh   |
          | GRADIENT NORM               0.000039664233 Eh/α |
          | HOMO-LUMO GAP               3.665471510354 eV   |
           -------------------------------------------------

 * finished run on 2025/07/14 at 11:28:48.799
