   * xtb version 6.7.0 (08769fc) compiled by 'albert@albert-system' on 2024-03-04

   ID    Z sym.   atoms
    1   15 P      1
    2    6 C      2, 5, 9-14, 20, 23
    3    1 H      3, 4, 6-8, 15-19, 21, 22, 24-26

          program call               : /home/minenky/programs/xtb/xtb-dist/bin/xtb m1_00_PEt2Ph-PBE0-D3-TZ-uniMM_11.xyz --charge 0 --T --ohess extreme --cycles 5000 --acc 0.01 --iterations 5000
          :  Hamiltonian                  GFN2-xTB          :
 * total energy  :   -31.5463899 Eh     change        0.1421085E-13 Eh
 * total energy  :   -31.5499197 Eh     change       -0.3529772E-02 Eh
 * total energy  :   -31.5509297 Eh     change       -0.1009997E-02 Eh
 * total energy  :   -31.5513130 Eh     change       -0.3833070E-03 Eh
 * total energy  :   -31.5514691 Eh     change       -0.1560918E-03 Eh
 * total energy  :   -31.5515601 Eh     change       -0.9097746E-04 Eh
 * total energy  :   -31.5516211 Eh     change       -0.6109124E-04 Eh
 * total energy  :   -31.5516828 Eh     change       -0.6162199E-04 Eh
 * total energy  :   -31.5517690 Eh     change       -0.8622835E-04 Eh
 * total energy  :   -31.5518848 Eh     change       -0.1158103E-03 Eh
 * total energy  :   -31.5526299 Eh     change       -0.5194342E-06 Eh
 * total energy  :   -31.5526304 Eh     change       -0.5084434E-06 Eh
 * total energy  :   -31.5526309 Eh     change       -0.4967904E-06 Eh
 * total energy  :   -31.5526314 Eh     change       -0.4872894E-06 Eh
 * total energy  :   -31.5526319 Eh     change       -0.4770718E-06 Eh
 * total energy  :   -31.5526323 Eh     change       -0.4696019E-06 Eh
 * total energy  :   -31.5526328 Eh     change       -0.4610173E-06 Eh
 * total energy  :   -31.5526333 Eh     change       -0.4552346E-06 Eh
 * total energy  :   -31.5526333 Eh     change       -0.3704244E-08 Eh
   *** GEOMETRY OPTIMIZATION CONVERGED AFTER 185 ITERATIONS ***

 final structure:
================
26
 xtb: 6.7.0 (08769fc)
P            1.67628484463938       -0.51516304345404       -3.02193005440310
C            2.01668499710591        1.32406615594917       -2.98401982705140
H            3.05659191766919        1.43253162824117       -2.66276530706818
H            1.91221093665279        1.74232049595932       -3.98775116554606
C            1.10260982057175        2.05694404852327       -2.01312548671587
H            1.16140494439618        1.61250137113278       -1.02135628731949
H            0.06914543079474        2.01306511600823       -2.35079897454906
H            1.39289861835446        3.10401241082950       -1.93918033109739
C            0.10991505694152       -0.46733235320184       -3.98175721100591
C           -0.01471316247876       -0.62951136376403       -5.35572290342572
C           -1.04489802093016       -0.29295731870991       -3.22121631630601
C           -1.26123201349475       -0.57709168390868       -5.95560841554831
C           -2.28831072220665       -0.23392269259735       -3.82068442607840
C           -2.39852800053946       -0.36974131215491       -5.19473585764533
H            0.85374901918238       -0.80649780644165       -5.97091814850994
H           -0.95619274761495       -0.21492302820390       -2.14588574810061
H           -1.34362881192082       -0.70000747814134       -7.02645283126026
H           -3.17337488414267       -0.09074042899633       -3.21731900024347
H           -3.36803785451318       -0.32612928908703       -5.66917944033590
C            2.94368102688147       -1.05852549800442       -4.28671607832959
H            3.78829804839439       -1.42786092431329       -3.69535911054053
H            2.50997433247121       -1.93101557675550       -4.78472641494231
C            3.46518803422642       -0.05658275794475       -5.31112297917762
H            4.04966712470835        0.72311360630963       -4.82900322715555
H            2.66082445778071        0.41633438314504       -5.86920477988160
H            4.11310660707112       -0.57107166041933       -6.02016167776232

          :  Hamiltonian                  GFN2-xTB          :
         :: gradient norm              0.000049668094 Eh/a0 ::
         :: HOMO-LUMO gap              3.637638377972 eV    ::
         :: SCC energy               -32.072960441251 Eh    ::
         :: -> dispersion             -0.024183231649 Eh    ::
         :: repulsion energy           0.520327171532 Eh    ::

    * Orbital Energies and Occupations

         #    Occupation            Energy/Eh            Energy/eV
      -------------------------------------------------------------
         1        2.0000           -0.6577981             -17.8996
       ...           ...                  ...                  ...
        18        2.0000           -0.4749542             -12.9242
        19        2.0000           -0.4731639             -12.8754
        20        2.0000           -0.4666522             -12.6983
        21        2.0000           -0.4608891             -12.5414
        22        2.0000           -0.4563759             -12.4186
        23        2.0000           -0.4435685             -12.0701
        24        2.0000           -0.4414902             -12.0136
        25        2.0000           -0.4234792             -11.5235
        26        2.0000           -0.4156659             -11.3108
        27        2.0000           -0.4054723             -11.0335
        28        2.0000           -0.4021889             -10.9441
        29        2.0000           -0.3975460             -10.8178
        30        2.0000           -0.3634011              -9.8886 (HOMO)
        31                         -0.2297204              -6.2510 (LUMO)
        32                         -0.2212426              -6.0203
        33                         -0.1564438              -4.2571
        34                         -0.1501284              -4.0852
        35                         -0.0924917              -2.5168
        36                         -0.0117498              -0.3197
        37                          0.0647958               1.7632
        38                          0.0901362               2.4527
        39                          0.1147782               3.1233
        40                          0.1227638               3.3406
        41                          0.1346585               3.6642
       ...                                ...                  ...
        64                          0.7723175              21.0158
      -------------------------------------------------------------
                  HL-Gap            0.1336808 Eh            3.6376 eV

     #   Z          covCN         q      C6AA      α(0)
     1  15 P        3.005    -0.118   165.593    23.118
     2   6 C        3.748    -0.043    21.416     6.601
     3   1 H        0.926     0.042     2.425     2.435
     4   1 H        0.925     0.046     2.368     2.406
     5   6 C        3.808    -0.098    22.368     6.732
     6   1 H        0.925     0.042     2.429     2.437
     7   1 H        0.925     0.039     2.459     2.452
     8   1 H        0.925     0.033     2.546     2.495
     9   6 C        2.915     0.010    27.801     8.646
    10   6 C        2.954    -0.033    28.820     8.805
    11   6 C        3.035    -0.031    28.736     8.793
    12   6 C        2.920    -0.031    28.785     8.798
    13   6 C        2.918    -0.030    28.759     8.794
    14   6 C        2.920    -0.030    28.760     8.794
    15   1 H        0.926     0.036     2.503     2.474
    16   1 H        0.925     0.038     2.476     2.461
    17   1 H        0.926     0.027     2.633     2.538
    18   1 H        0.926     0.028     2.613     2.528
    19   1 H        0.926     0.028     2.619     2.531
    20   6 C        3.747    -0.048    21.499     6.614
    21   1 H        0.926     0.039     2.465     2.455
    22   1 H        0.926     0.044     2.399     2.422
    23   6 C        3.769    -0.095    22.343     6.736
    24   1 H        0.925     0.037     2.495     2.470
    25   1 H        0.925     0.038     2.469     2.457
    26   1 H        0.925     0.033     2.546     2.495

Wiberg/Mayer (AO) data.
largest (>0.10) Wiberg bond orders for each atom

     #   Z sym  total        # sym  WBO       # sym  WBO       # sym  WBO
 ---------------------------------------------------------------------------
     1  15 P    3.363 --    20 C    1.028     9 C    1.016     2 C    1.012
     2   6 C    3.996 --     5 C    1.017     1 P    1.012     3 H    0.956
                             4 H    0.953
     3   1 H    0.997 --     2 C    0.956
     4   1 H    0.998 --     2 C    0.953
     5   6 C    3.996 --     2 C    1.017     6 H    0.985     8 H    0.984
                             7 H    0.983
     6   1 H    0.998 --     5 C    0.985
     7   1 H    0.998 --     5 C    0.983
     8   1 H    0.999 --     5 C    0.984
     9   6 C    3.982 --    10 C    1.404    11 C    1.393     1 P    1.016
                            14 C    0.106
    10   6 C    3.992 --    12 C    1.442     9 C    1.404    15 H    0.961
                            13 C    0.108
    11   6 C    3.992 --    13 C    1.452     9 C    1.393    16 H    0.962
                            12 C    0.109
    12   6 C    3.992 --    10 C    1.442    14 C    1.439    17 H    0.970
                            11 C    0.109
    13   6 C    3.991 --    11 C    1.452    14 C    1.432    18 H    0.970
                            10 C    0.108
    14   6 C    3.992 --    12 C    1.439    13 C    1.432    19 H    0.971
                             9 C    0.106
    15   1 H    0.999 --    10 C    0.961
    16   1 H    0.999 --    11 C    0.962
    17   1 H    0.999 --    12 C    0.970
    18   1 H    0.999 --    13 C    0.970
    19   1 H    0.999 --    14 C    0.971
    20   6 C    3.991 --     1 P    1.028    23 C    1.010    21 H    0.959
                            22 H    0.953
    21   1 H    0.998 --    20 C    0.959
    22   1 H    0.998 --    20 C    0.953
    23   6 C    3.997 --    20 C    1.010    24 H    0.986    26 H    0.983
                            25 H    0.981
    24   1 H    0.999 --    23 C    0.986
    25   1 H    0.999 --    23 C    0.981
    26   1 H    0.999 --    23 C    0.983
 ---------------------------------------------------------------------------

molecular dipole:
                 x           y           z       tot (Debye)
 q only:        0.161       0.233      -0.166
   full:        0.145       0.406      -0.509       1.696

 projected vibrational frequencies (cm⁻¹)
eigval :       -0.00    -0.00    -0.00    -0.00     0.00     0.00
eigval :       22.01    74.85   109.09   128.71   164.85   175.69
eigval :      217.55   229.28   252.97   261.13   287.67   365.69
eigval :      378.52   409.28   460.64   585.62   643.80   660.25
eigval :      682.70   688.12   736.64   749.24   779.19   876.76
eigval :      900.73   928.40   933.68   968.15   990.96   998.94
eigval :     1017.68  1020.17  1061.14  1080.64  1084.64  1115.36
eigval :     1121.23  1181.51  1202.12  1228.81  1232.71  1247.83
eigval :     1276.34  1283.99  1316.07  1408.76  1410.69  1421.41
eigval :     1442.79  1455.71  1462.83  1497.61  1503.15  1505.41
eigval :     1512.56  1578.18  1588.99  2928.63  2941.93  2948.21
eigval :     2950.90  3008.04  3012.34  3025.32  3031.11  3034.27
eigval :     3042.30  3058.07  3066.89  3073.86  3086.48  3099.73

   temp. (K)  partition function   enthalpy   heat capacity  entropy
                                   cal/mol     cal/K/mol   cal/K/mol   J/K/mol
 298.15  VIB  0.982E+04             6034.255     39.520     36.319
         ROT  0.117E+07              888.752      2.981     30.749
         INT  0.115E+11             6923.007     42.501     67.069
         TR   0.207E+28             1481.254      4.968     41.214
         TOT                        8404.2612    47.4693   108.2822   453.0526

       T/K    H(0)-H(T)+PV         H(T)/Eh          T*S/Eh         G(T)/Eh
   ------------------------------------------------------------------------
    298.15    0.133930E-01    0.232615E+00    0.514484E-01    0.181167E+00
   ------------------------------------------------------------------------

         :::::::::::::::::::::::::::::::::::::::::::::::::::::
         ::                  THERMODYNAMIC                  ::
         :::::::::::::::::::::::::::::::::::::::::::::::::::::
         :: total free energy         -31.371466147664 Eh   ::
         ::.................................................::
         :: total energy              -31.552633269719 Eh   ::
         :: zero point energy           0.219222429870 Eh   ::
         :: G(RRHO) w/o ZPVE           -0.038055307815 Eh   ::
         :: G(RRHO) contrib.            0.181167122055 Eh   ::
         :::::::::::::::::::::::::::::::::::::::::::::::::::::

           -------------------------------------------------
          | TOTAL ENERGY              -31.552633269719 Eh   |
          | TOTAL ENTHALPY            -31.320017797194 Eh   |
          | TOTAL FREE ENERGY         -31.371466147664 Eh   |
          | GRADIENT NORM               0.000049668092 Eh/α |
          | HOMO-LUMO GAP               3.637638385409 eV   |
           -------------------------------------------------

 * finished run on 2025/07/14 at 11:26:39.207
