   * xtb version 6.7.0 (08769fc) compiled by 'albert@albert-system' on 2024-03-04

   ID    Z sym.   atoms
    1   15 P      1
    2    6 C      2, 5, 9-14, 20, 23
    3    1 H      3, 4, 6-8, 15-19, 21, 22, 24-26

          program call               : /home/minenky/programs/xtb/xtb-dist/bin/xtb m1_00_PEt2Ph-PBE0-D3-TZ-uniMM_58.xyz --charge 0 --T --ohess extreme --cycles 5000 --acc 0.01 --iterations 5000
          :  Hamiltonian                  GFN2-xTB          :
 * total energy  :   -31.5358094 Eh     change       -0.7105427E-14 Eh
 * total energy  :   -31.5477422 Eh     change       -0.1193274E-01 Eh
 * total energy  :   -31.5510555 Eh     change       -0.3313358E-02 Eh
 * total energy  :   -31.5528552 Eh     change       -0.1799672E-02 Eh
 * total energy  :   -31.5535460 Eh     change       -0.6908336E-03 Eh
 * total energy  :   -31.5538665 Eh     change       -0.3204534E-03 Eh
 * total energy  :   -31.5540461 Eh     change       -0.1795985E-03 Eh
 * total energy  :   -31.5542037 Eh     change       -0.1576544E-03 Eh
 * total energy  :   -31.5543679 Eh     change       -0.1642074E-03 Eh
 * total energy  :   -31.5544892 Eh     change       -0.1212814E-03 Eh
 * total energy  :   -31.5556679 Eh     change       -0.1371037E-06 Eh
 * total energy  :   -31.5556678 Eh     change        0.3547117E-07 Eh
 * total energy  :   -31.5556680 Eh     change       -0.1204367E-06 Eh
 * total energy  :   -31.5556679 Eh     change        0.2062821E-07 Eh
 * total energy  :   -31.5556680 Eh     change       -0.7589193E-07 Eh
 * total energy  :   -31.5556680 Eh     change        0.1363167E-07 Eh
 * total energy  :   -31.5556681 Eh     change       -0.6318606E-07 Eh
 * total energy  :   -31.5556681 Eh     change        0.2447109E-09 Eh
 * total energy  :   -31.5556681 Eh     change       -0.4356362E-07 Eh
   *** GEOMETRY OPTIMIZATION CONVERGED AFTER 63 ITERATIONS ***

 final structure:
================
26
 xtb: 6.7.0 (08769fc)
P            2.02409570526267       -0.11345416096350       -3.05099357156951
C            0.61304577793430       -1.28998061217846       -2.70430068731922
H            0.22902158008485       -1.01706760852301       -1.71736055807283
H           -0.16940841560958       -1.05367627964333       -3.43145353764802
C            0.93777249679470       -2.77703891959511       -2.73706405447148
H            1.76572163022056       -3.00560908841743       -2.06819568914847
H            1.20151455667312       -3.10189764738677       -3.74038603460864
H            0.06977780268686       -3.35078490438652       -2.41538838001605
C            3.22515729048095       -0.79963230442661       -1.84331496019407
C            4.40017584836142       -1.47074642500253       -2.15660002572270
C            2.93232285107025       -0.55258884687014       -0.50315666130411
C            5.24173283464944       -1.91425709070613       -1.15033856340817
C            3.76868347807274       -1.00006640081216        0.50031866529750
C            4.92780157286562       -1.68766487622630        0.17791516277059
H            4.67242261153742       -1.65830070078040       -3.18399879198791
H            2.03483418594222       -0.00157476888023       -0.25472603553862
H            6.14965578260976       -2.44121473755513       -1.40815717348325
H            3.52224840291741       -0.80885761580028        1.53492677054242
H            5.58659180233625       -2.03830472184320        0.95883862193217
C            2.61320320294159       -0.81907309757227       -4.67203403070809
H            2.99458416560960       -1.83429444578855       -4.54354122889069
H            1.73287223055584       -0.86644208147594       -5.32028149013471
C            3.66461849474185        0.08272182542729       -5.30848236735558
H            4.53110375316130        0.19117269819966       -4.65884798327594
H            3.25291183065603        1.07476358503595       -5.48231817637564
H            3.99599652744298       -0.32583177382941       -6.26223421930846

          :  Hamiltonian                  GFN2-xTB          :
         :: gradient norm              0.000018413612 Eh/a0 ::
         :: HOMO-LUMO gap              3.648933979450 eV    ::
         :: SCC energy               -32.076682693370 Eh    ::
         :: -> dispersion             -0.024329920716 Eh    ::
         :: repulsion energy           0.521014575445 Eh    ::

    * Orbital Energies and Occupations

         #    Occupation            Energy/Eh            Energy/eV
      -------------------------------------------------------------
         1        2.0000           -0.6587815             -17.9264
       ...           ...                  ...                  ...
        18        2.0000           -0.4754132             -12.9367
        19        2.0000           -0.4741781             -12.9030
        20        2.0000           -0.4670988             -12.7104
        21        2.0000           -0.4610148             -12.5449
        22        2.0000           -0.4564671             -12.4211
        23        2.0000           -0.4434812             -12.0677
        24        2.0000           -0.4381662             -11.9231
        25        2.0000           -0.4239582             -11.5365
        26        2.0000           -0.4162914             -11.3279
        27        2.0000           -0.4071660             -11.0795
        28        2.0000           -0.4029393             -10.9645
        29        2.0000           -0.3995587             -10.8725
        30        2.0000           -0.3641199              -9.9082 (HOMO)
        31                         -0.2300240              -6.2593 (LUMO)
        32                         -0.2215933              -6.0299
        33                         -0.1546692              -4.2088
        34                         -0.1502598              -4.0888
        35                         -0.0932123              -2.5364
        36                          0.0038099               0.1037
        37                          0.0490651               1.3351
        38                          0.0991133               2.6970
        39                          0.1125267               3.0620
        40                          0.1210904               3.2950
        41                          0.1306856               3.5561
       ...                                ...                  ...
        64                          0.7771815              21.1482
      -------------------------------------------------------------
                  HL-Gap            0.1340959 Eh            3.6489 eV

     #   Z          covCN         q      C6AA      α(0)
     1  15 P        3.029    -0.114   165.415    23.105
     2   6 C        3.747    -0.046    21.461     6.608
     3   1 H        0.926     0.042     2.422     2.434
     4   1 H        0.926     0.040     2.450     2.447
     5   6 C        3.780    -0.096    22.347     6.734
     6   1 H        0.925     0.038     2.472     2.459
     7   1 H        0.925     0.037     2.486     2.466
     8   1 H        0.925     0.033     2.540     2.492
     9   6 C        2.915     0.012    27.742     8.637
    10   6 C        2.956    -0.033    28.819     8.805
    11   6 C        3.033    -0.030    28.718     8.790
    12   6 C        2.920    -0.032    28.787     8.798
    13   6 C        2.918    -0.030    28.749     8.793
    14   6 C        2.920    -0.031    28.775     8.797
    15   1 H        0.926     0.036     2.506     2.475
    16   1 H        0.925     0.035     2.523     2.484
    17   1 H        0.926     0.027     2.629     2.535
    18   1 H        0.926     0.029     2.606     2.525
    19   1 H        0.926     0.028     2.617     2.530
    20   6 C        3.748    -0.046    21.455     6.607
    21   1 H        0.925     0.046     2.369     2.407
    22   1 H        0.926     0.040     2.446     2.446
    23   6 C        3.821    -0.098    22.342     6.727
    24   1 H        0.925     0.039     2.465     2.455
    25   1 H        0.925     0.041     2.434     2.440
    26   1 H        0.925     0.031     2.569     2.507

Wiberg/Mayer (AO) data.
largest (>0.10) Wiberg bond orders for each atom

     #   Z sym  total        # sym  WBO       # sym  WBO       # sym  WBO
 ---------------------------------------------------------------------------
     1  15 P    3.374 --    20 C    1.030     9 C    1.018     2 C    1.012
     2   6 C    3.994 --     1 P    1.012     5 C    1.012     4 H    0.957
                             3 H    0.956
     3   1 H    0.998 --     2 C    0.956
     4   1 H    0.998 --     2 C    0.957
     5   6 C    3.997 --     2 C    1.012     7 H    0.985     6 H    0.983
                             8 H    0.983
     6   1 H    0.999 --     5 C    0.983
     7   1 H    0.999 --     5 C    0.985
     8   1 H    0.999 --     5 C    0.983
     9   6 C    3.982 --    10 C    1.404    11 C    1.389     1 P    1.018
                            14 C    0.106
    10   6 C    3.993 --    12 C    1.439     9 C    1.404    15 H    0.961
                            13 C    0.107
    11   6 C    3.992 --    13 C    1.457     9 C    1.389    16 H    0.962
                            12 C    0.110
    12   6 C    3.993 --    14 C    1.442    10 C    1.439    17 H    0.970
                            11 C    0.110
    13   6 C    3.991 --    11 C    1.457    14 C    1.428    18 H    0.970
                            10 C    0.107
    14   6 C    3.992 --    12 C    1.442    13 C    1.428    19 H    0.971
                             9 C    0.106
    15   1 H    0.999 --    10 C    0.961
    16   1 H    0.999 --    11 C    0.962
    17   1 H    0.999 --    12 C    0.970
    18   1 H    0.999 --    13 C    0.970
    19   1 H    0.998 --    14 C    0.971
    20   6 C    3.995 --     1 P    1.030    23 C    1.016    22 H    0.956
                            21 H    0.949
    21   1 H    0.998 --    20 C    0.949
    22   1 H    0.998 --    20 C    0.956
    23   6 C    3.997 --    20 C    1.016    25 H    0.985    26 H    0.985
                            24 H    0.983
    24   1 H    0.998 --    23 C    0.983
    25   1 H    0.998 --    23 C    0.985
    26   1 H    0.999 --    23 C    0.985
 ---------------------------------------------------------------------------

molecular dipole:
                 x           y           z       tot (Debye)
 q only:       -0.058      -0.274      -0.151
   full:        0.024      -0.638      -0.142       1.662

 projected vibrational frequencies (cm⁻¹)
eigval :       -0.00    -0.00    -0.00     0.00     0.00     0.00
eigval :       25.10    64.55    85.36   113.38   161.60   170.58
eigval :      201.67   222.19   248.16   263.14   314.16   361.43
eigval :      366.35   392.79   473.35   585.83   648.63   659.30
eigval :      679.06   690.27   736.68   760.53   769.40   872.84
eigval :      896.04   925.83   931.62   967.52   982.28   995.03
eigval :     1013.64  1017.25  1063.78  1077.67  1084.87  1115.19
eigval :     1123.40  1181.74  1203.80  1222.82  1230.76  1250.48
eigval :     1268.42  1280.26  1317.25  1407.87  1412.77  1421.45
eigval :     1448.98  1451.53  1461.67  1496.55  1499.45  1505.05
eigval :     1506.36  1578.13  1589.21  2936.14  2941.24  2951.14
eigval :     2955.55  3011.76  3012.30  3023.57  3025.46  3034.23
eigval :     3041.23  3054.75  3067.47  3074.41  3086.74  3093.66

   temp. (K)  partition function   enthalpy   heat capacity  entropy
                                   cal/mol     cal/K/mol   cal/K/mol   J/K/mol
 298.15  VIB  0.142E+05             6118.954     39.486     37.317
         ROT  0.115E+07              888.752      2.981     30.720
         INT  0.164E+11             7007.706     42.466     68.037
         TR   0.207E+28             1481.254      4.968     41.214
         TOT                        8488.9604    47.4346   109.2510   457.1060

       T/K    H(0)-H(T)+PV         H(T)/Eh          T*S/Eh         G(T)/Eh
   ------------------------------------------------------------------------
    298.15    0.135280E-01    0.232470E+00    0.519087E-01    0.180562E+00
   ------------------------------------------------------------------------

         :::::::::::::::::::::::::::::::::::::::::::::::::::::
         ::                  THERMODYNAMIC                  ::
         :::::::::::::::::::::::::::::::::::::::::::::::::::::
         :: total free energy         -31.375106292671 Eh   ::
         ::.................................................::
         :: total energy              -31.555668117925 Eh   ::
         :: zero point energy           0.218942459831 Eh   ::
         :: G(RRHO) w/o ZPVE           -0.038380634577 Eh   ::
         :: G(RRHO) contrib.            0.180561825254 Eh   ::
         :::::::::::::::::::::::::::::::::::::::::::::::::::::

           -------------------------------------------------
          | TOTAL ENERGY              -31.555668117925 Eh   |
          | TOTAL ENTHALPY            -31.323197638567 Eh   |
          | TOTAL FREE ENERGY         -31.375106292671 Eh   |
          | GRADIENT NORM               0.000018413552 Eh/α |
          | HOMO-LUMO GAP               3.648934019200 eV   |
           -------------------------------------------------

 * finished run on 2025/07/14 at 11:35:38.673
