   * xtb version 6.7.0 (08769fc) compiled by 'albert@albert-system' on 2024-03-04

   ID    Z sym.   atoms
    1   15 P      1
    2    6 C      2, 5, 9-14, 20, 23
    3    1 H      3, 4, 6-8, 15-19, 21, 22, 24-26

          program call               : /home/minenky/programs/xtb/xtb-dist/bin/xtb m1_00_PEt2Ph-PBE0-D3-TZ-uniMM_50.xyz --charge 0 --T --ohess extreme --cycles 5000 --acc 0.01 --iterations 5000
          :  Hamiltonian                  GFN2-xTB          :
 * total energy  :   -31.5389250 Eh     change       -0.2131628E-13 Eh
 * total energy  :   -31.5464845 Eh     change       -0.7559521E-02 Eh
 * total energy  :   -31.5489846 Eh     change       -0.2500150E-02 Eh
 * total energy  :   -31.5506196 Eh     change       -0.1634946E-02 Eh
 * total energy  :   -31.5513991 Eh     change       -0.7795434E-03 Eh
 * total energy  :   -31.5518901 Eh     change       -0.4909880E-03 Eh
 * total energy  :   -31.5522187 Eh     change       -0.3285707E-03 Eh
 * total energy  :   -31.5524438 Eh     change       -0.2251138E-03 Eh
 * total energy  :   -31.5526590 Eh     change       -0.2151796E-03 Eh
 * total energy  :   -31.5529048 Eh     change       -0.2457782E-03 Eh
 * total energy  :   -31.5560242 Eh     change       -0.1282389E-06 Eh
 * total energy  :   -31.5560243 Eh     change       -0.1322944E-06 Eh
 * total energy  :   -31.5560244 Eh     change       -0.1348885E-06 Eh
 * total energy  :   -31.5560246 Eh     change       -0.1231201E-06 Eh
 * total energy  :   -31.5560247 Eh     change       -0.1098563E-06 Eh
 * total energy  :   -31.5560248 Eh     change       -0.9781022E-07 Eh
 * total energy  :   -31.5560248 Eh     change       -0.8831245E-07 Eh
 * total energy  :   -31.5560249 Eh     change       -0.8426003E-07 Eh
 * total energy  :   -31.5560249 Eh     change       -0.7771312E-09 Eh
   *** GEOMETRY OPTIMIZATION CONVERGED AFTER 68 ITERATIONS ***

 final structure:
================
26
 xtb: 6.7.0 (08769fc)
P            1.51935692697577       -0.08971000705869       -2.91346503988792
C            0.28984448795745        0.68468829788872       -1.73863997535636
H            0.18434972309062        0.00774941476641       -0.88646441527618
H            0.68242900081416        1.63971184685439       -1.37663921920931
C           -1.05955212424763        0.88523041364854       -2.41313324511214
H           -1.44738090531227       -0.06394768478242       -2.77772249704229
H           -0.96425735025803        1.56234017860422       -3.26067786845405
H           -1.77987351477992        1.30695833740137       -1.71393210429498
C            1.78364110246683        1.38314401806745       -3.98502914775153
C            2.39838998269536        2.55856945628292       -3.56990147585470
C            1.30486697329160        1.29764762328305       -5.28817969169853
C            2.52865819416386        3.62355371897990       -4.44267233389455
C            1.42956780815678        2.36452206403806       -6.15947121350535
C            2.04396188612548        3.53091331702531       -5.73690994400355
H            2.77995150778772        2.65094527246758       -2.56346001724138
H            0.83069591954054        0.38101404292854       -5.61167207821494
H            3.00964585202331        4.53289319241832       -4.11069026634607
H            1.05009917962760        2.28650791209181       -7.16817873486937
H            2.14658094819278        4.36661143241443       -6.41376893102874
C            3.03353283556802        0.00815464266494       -1.82315025658644
H            3.90150066420632        0.09446769488854       -2.48267486593880
H            2.99304463251945        0.89354539506455       -1.18350873855395
C            3.15842421707316       -1.24648976311961       -0.96716005862162
H            3.20677512293073       -2.13217100354428       -1.59719872035106
H            2.30142281199784       -1.34869781143671       -0.30417240347196
H            4.05967711739178       -1.20661700183764       -0.35742575743450

          :  Hamiltonian                  GFN2-xTB          :
         :: gradient norm              0.000022642232 Eh/a0 ::
         :: HOMO-LUMO gap              3.666295188195 eV    ::
         :: SCC energy               -32.076553791918 Eh    ::
         :: -> dispersion             -0.023584637662 Eh    ::
         :: repulsion energy           0.520528858317 Eh    ::

    * Orbital Energies and Occupations

         #    Occupation            Energy/Eh            Energy/eV
      -------------------------------------------------------------
         1        2.0000           -0.6580477             -17.9064
       ...           ...                  ...                  ...
        18        2.0000           -0.4773003             -12.9880
        19        2.0000           -0.4745126             -12.9121
        20        2.0000           -0.4632976             -12.6070
        21        2.0000           -0.4617820             -12.5657
        22        2.0000           -0.4524537             -12.3119
        23        2.0000           -0.4446176             -12.0987
        24        2.0000           -0.4381691             -11.9232
        25        2.0000           -0.4230452             -11.5116
        26        2.0000           -0.4182574             -11.3814
        27        2.0000           -0.4045650             -11.0088
        28        2.0000           -0.4040578             -10.9950
        29        2.0000           -0.3968736             -10.7995
        30        2.0000           -0.3672883              -9.9944 (HOMO)
        31                         -0.2325544              -6.3281 (LUMO)
        32                         -0.2227605              -6.0616
        33                         -0.1561407              -4.2488
        34                         -0.1513729              -4.1191
        35                         -0.0928273              -2.5260
        36                         -0.0020452              -0.0557
        37                          0.0592670               1.6127
        38                          0.0915770               2.4919
        39                          0.1095852               2.9820
        40                          0.1326519               3.6096
        41                          0.1365193               3.7149
       ...                                ...                  ...
        64                          0.7811992              21.2575
      -------------------------------------------------------------
                  HL-Gap            0.1347339 Eh            3.6663 eV

     #   Z          covCN         q      C6AA      α(0)
     1  15 P        3.057    -0.114   165.384    23.102
     2   6 C        3.748    -0.045    21.447     6.605
     3   1 H        0.925     0.040     2.449     2.447
     4   1 H        0.925     0.042     2.419     2.432
     5   6 C        3.819    -0.097    22.333     6.726
     6   1 H        0.925     0.042     2.425     2.435
     7   1 H        0.925     0.036     2.502     2.474
     8   1 H        0.925     0.032     2.551     2.498
     9   6 C        2.916     0.008    27.846     8.653
    10   6 C        2.960    -0.030    28.739     8.793
    11   6 C        3.019    -0.030    28.730     8.792
    12   6 C        2.919    -0.031    28.769     8.796
    13   6 C        2.918    -0.030    28.748     8.792
    14   6 C        2.920    -0.029    28.735     8.791
    15   1 H        0.926     0.032     2.562     2.503
    16   1 H        0.925     0.039     2.458     2.452
    17   1 H        0.926     0.028     2.612     2.527
    18   1 H        0.926     0.030     2.586     2.515
    19   1 H        0.926     0.029     2.599     2.521
    20   6 C        3.748    -0.048    21.494     6.613
    21   1 H        0.925     0.040     2.449     2.447
    22   1 H        0.925     0.041     2.432     2.439
    23   6 C        3.823    -0.098    22.350     6.728
    24   1 H        0.925     0.042     2.421     2.433
    25   1 H        0.925     0.036     2.497     2.471
    26   1 H        0.925     0.033     2.548     2.496

Wiberg/Mayer (AO) data.
largest (>0.10) Wiberg bond orders for each atom

     #   Z sym  total        # sym  WBO       # sym  WBO       # sym  WBO
 ---------------------------------------------------------------------------
     1  15 P    3.344 --    20 C    1.027     2 C    1.020     9 C    1.008
     2   6 C    3.996 --     1 P    1.020     5 C    1.017     3 H    0.957
                             4 H    0.952
     3   1 H    0.998 --     2 C    0.957
     4   1 H    0.998 --     2 C    0.952
     5   6 C    3.997 --     2 C    1.017     6 H    0.985     8 H    0.984
                             7 H    0.984
     6   1 H    0.998 --     5 C    0.985
     7   1 H    0.999 --     5 C    0.984
     8   1 H    0.999 --     5 C    0.984
     9   6 C    3.983 --    11 C    1.406    10 C    1.400     1 P    1.008
                            14 C    0.108
    10   6 C    3.993 --    12 C    1.448     9 C    1.400    15 H    0.963
                            13 C    0.110
    11   6 C    3.991 --    13 C    1.444     9 C    1.406    16 H    0.964
                            12 C    0.109
    12   6 C    3.993 --    10 C    1.448    14 C    1.434    17 H    0.970
                            11 C    0.109
    13   6 C    3.992 --    11 C    1.444    14 C    1.439    18 H    0.970
                            10 C    0.110
    14   6 C    3.990 --    13 C    1.439    12 C    1.434    19 H    0.971
                             9 C    0.108
    15   1 H    0.999 --    10 C    0.963
    16   1 H    0.998 --    11 C    0.964
    17   1 H    0.999 --    12 C    0.970
    18   1 H    0.999 --    13 C    0.970
    19   1 H    0.998 --    14 C    0.971
    20   6 C    3.995 --     1 P    1.027    23 C    1.016    21 H    0.960
                            22 H    0.951
    21   1 H    0.998 --    20 C    0.960
    22   1 H    0.998 --    20 C    0.951
    23   6 C    3.996 --    20 C    1.016    24 H    0.985    26 H    0.985
                            25 H    0.984
    24   1 H    0.998 --    23 C    0.985
    25   1 H    0.999 --    23 C    0.984
    26   1 H    0.998 --    23 C    0.985
 ---------------------------------------------------------------------------

molecular dipole:
                 x           y           z       tot (Debye)
 q only:       -0.000       0.142       0.205
   full:        0.094       0.507       0.370       1.613

 projected vibrational frequencies (cm⁻¹)
eigval :       -0.00    -0.00    -0.00    -0.00     0.00     0.00
eigval :       10.92    52.94    72.05    99.57   131.42   159.47
eigval :      199.37   214.98   232.71   266.24   290.89   333.88
eigval :      361.59   429.18   452.30   585.98   656.94   661.90
eigval :      687.30   698.96   735.88   762.22   779.24   873.58
eigval :      898.03   926.25   932.64   969.14   977.10   994.01
eigval :     1012.30  1018.76  1071.15  1077.18  1083.43  1117.41
eigval :     1120.83  1181.60  1198.20  1224.44  1229.49  1251.11
eigval :     1252.30  1279.98  1315.43  1409.66  1410.77  1423.25
eigval :     1438.67  1448.23  1457.49  1497.25  1498.82  1501.01
eigval :     1502.53  1579.63  1589.34  2925.76  2936.34  2948.04
eigval :     2951.05  3013.82  3014.40  3019.98  3024.55  3029.98
eigval :     3033.48  3062.07  3066.12  3074.30  3080.13  3088.02

   temp. (K)  partition function   enthalpy   heat capacity  entropy
                                   cal/mol     cal/K/mol   cal/K/mol   J/K/mol
 298.15  VIB  0.634E+05             6272.624     39.256     39.480
         ROT  0.122E+07              888.752      2.981     30.836
         INT  0.775E+11             7161.377     42.236     70.317
         TR   0.207E+28             1481.254      4.968     41.214
         TOT                        8642.6307    47.2046   111.5303   466.6430

       T/K    H(0)-H(T)+PV         H(T)/Eh          T*S/Eh         G(T)/Eh
   ------------------------------------------------------------------------
    298.15    0.137729E-01    0.232261E+00    0.529917E-01    0.179269E+00
   ------------------------------------------------------------------------

         :::::::::::::::::::::::::::::::::::::::::::::::::::::
         ::                  THERMODYNAMIC                  ::
         :::::::::::::::::::::::::::::::::::::::::::::::::::::
         :: total free energy         -31.376756059646 Eh   ::
         ::.................................................::
         :: total energy              -31.556024933601 Eh   ::
         :: zero point energy           0.218487633379 Eh   ::
         :: G(RRHO) w/o ZPVE           -0.039218759424 Eh   ::
         :: G(RRHO) contrib.            0.179268873955 Eh   ::
         :::::::::::::::::::::::::::::::::::::::::::::::::::::

           -------------------------------------------------
          | TOTAL ENERGY              -31.556024933601 Eh   |
          | TOTAL ENTHALPY            -31.323764391511 Eh   |
          | TOTAL FREE ENERGY         -31.376756059646 Eh   |
          | GRADIENT NORM               0.000022642377 Eh/α |
          | HOMO-LUMO GAP               3.666295167904 eV   |
           -------------------------------------------------

 * finished run on 2025/07/14 at 11:34:07.647
