   * xtb version 6.7.0 (08769fc) compiled by 'albert@albert-system' on 2024-03-04

   ID    Z sym.   atoms
    1   15 P      1
    2    6 C      2, 5, 9-14, 20, 23
    3    1 H      3, 4, 6-8, 15-19, 21, 22, 24-26

          program call               : /home/minenky/programs/xtb/xtb-dist/bin/xtb m1_00_PEt2Ph-PBE0-D3-TZ-uniMM_49.xyz --charge 0 --T --ohess extreme --cycles 5000 --acc 0.01 --iterations 5000
          :  Hamiltonian                  GFN2-xTB          :
 * total energy  :   -31.5420650 Eh     change        0.2842171E-13 Eh
 * total energy  :   -31.5497664 Eh     change       -0.7701385E-02 Eh
 * total energy  :   -31.5522191 Eh     change       -0.2452708E-02 Eh
 * total energy  :   -31.5539561 Eh     change       -0.1737017E-02 Eh
 * total energy  :   -31.5547697 Eh     change       -0.8135609E-03 Eh
 * total energy  :   -31.5552008 Eh     change       -0.4310805E-03 Eh
 * total energy  :   -31.5553975 Eh     change       -0.1967595E-03 Eh
 * total energy  :   -31.5554648 Eh     change       -0.6729623E-04 Eh
 * total energy  :   -31.5554987 Eh     change       -0.3384415E-04 Eh
 * total energy  :   -31.5555194 Eh     change       -0.2078146E-04 Eh
 * total energy  :   -31.5559237 Eh     change       -0.4182272E-06 Eh
 * total energy  :   -31.5559242 Eh     change       -0.4537903E-06 Eh
 * total energy  :   -31.5559247 Eh     change       -0.5066528E-06 Eh
 * total energy  :   -31.5559251 Eh     change       -0.4394485E-06 Eh
 * total energy  :   -31.5559255 Eh     change       -0.3214972E-06 Eh
 * total energy  :   -31.5559257 Eh     change       -0.2359880E-06 Eh
 * total energy  :   -31.5559259 Eh     change       -0.2014857E-06 Eh
 * total energy  :   -31.5559261 Eh     change       -0.1917220E-06 Eh
 * total energy  :   -31.5559261 Eh     change       -0.1861995E-08 Eh
   *** GEOMETRY OPTIMIZATION CONVERGED AFTER 44 ITERATIONS ***

 final structure:
================
26
 xtb: 6.7.0 (08769fc)
P            1.78268538445259       -0.11699313045970       -2.86111478402709
C            0.23667154151765       -1.15903759518064       -3.00313775333635
H           -0.19860280139098       -0.91302855177367       -3.97563409454587
H            0.56573648059144       -2.20031626345745       -3.05881927753593
C           -0.80972193083736       -0.98532334094561       -1.91134488429648
H           -1.08128507354588        0.06328820554780       -1.80118196567071
H           -0.44923660742082       -1.35278163624945       -0.95369888820389
H           -1.70734538164238       -1.54607377435520       -2.16835992712521
C            0.97595832677084        1.51936839298686       -2.66346534410300
C            1.12014930945650        2.34588137412667       -1.55556792520588
C            0.24355056726113        1.98576427265580       -3.75380416866098
C            0.50866739772390        3.58771623419952       -1.52396028186224
C           -0.36928115476052        3.22282910630430       -3.72029031468353
C           -0.24301340590466        4.02722522537411       -2.59915952997105
H            1.70927089180526        2.03020826734425       -0.70814120660532
H            0.15844124294840        1.36663486495763       -4.63670746041778
H            0.62215246472819        4.21597984216990       -0.65179416894753
H           -0.94178152297048        3.56478333516832       -4.57062547733309
H           -0.72080259473372        4.99547277922938       -2.56844634201147
C            2.28879166983909       -0.48428709062002       -1.10465188186893
H            3.12141904214689        0.18830635777068       -0.87814836669847
H            1.47270236206671       -0.26937359024640       -0.41096170989175
C            2.75931220047771       -1.92574910089848       -0.95738214306977
H            3.53563593802536       -2.14789164989051       -1.68730783710532
H            1.93871959173821       -2.62327778052646       -1.11020669525240
H            3.16606506165676       -2.09301375323126        0.03888442842955

          :  Hamiltonian                  GFN2-xTB          :
         :: gradient norm              0.000034867008 Eh/a0 ::
         :: HOMO-LUMO gap              3.638288516925 eV    ::
         :: SCC energy               -32.077063945702 Eh    ::
         :: -> dispersion             -0.024356974134 Eh    ::
         :: repulsion energy           0.521137846134 Eh    ::

    * Orbital Energies and Occupations

         #    Occupation            Energy/Eh            Energy/eV
      -------------------------------------------------------------
         1        2.0000           -0.6587453             -17.9254
       ...           ...                  ...                  ...
        18        2.0000           -0.4770719             -12.9818
        19        2.0000           -0.4740256             -12.8989
        20        2.0000           -0.4689959             -12.7620
        21        2.0000           -0.4616182             -12.5613
        22        2.0000           -0.4527191             -12.3191
        23        2.0000           -0.4451171             -12.1123
        24        2.0000           -0.4393327             -11.9549
        25        2.0000           -0.4246493             -11.5553
        26        2.0000           -0.4144314             -11.2773
        27        2.0000           -0.4077615             -11.0958
        28        2.0000           -0.4028320             -10.9616
        29        2.0000           -0.4006605             -10.9025
        30        2.0000           -0.3635819              -9.8936 (HOMO)
        31                         -0.2298773              -6.2553 (LUMO)
        32                         -0.2215458              -6.0286
        33                         -0.1543471              -4.2000
        34                         -0.1499865              -4.0813
        35                         -0.0933455              -2.5401
        36                          0.0102302               0.2784
        37                          0.0443827               1.2077
        38                          0.1065666               2.8998
        39                          0.1120523               3.0491
        40                          0.1164291               3.1682
        41                          0.1321176               3.5951
       ...                                ...                  ...
        64                          0.7999692              21.7683
      -------------------------------------------------------------
                  HL-Gap            0.1337046 Eh            3.6383 eV

     #   Z          covCN         q      C6AA      α(0)
     1  15 P        3.021    -0.113   165.377    23.102
     2   6 C        3.748    -0.044    21.427     6.602
     3   1 H        0.926     0.042     2.423     2.434
     4   1 H        0.926     0.041     2.439     2.442
     5   6 C        3.780    -0.094    22.320     6.730
     6   1 H        0.925     0.037     2.483     2.464
     7   1 H        0.925     0.038     2.479     2.462
     8   1 H        0.925     0.032     2.560     2.502
     9   6 C        2.915     0.010    27.790     8.645
    10   6 C        2.961    -0.033    28.832     8.807
    11   6 C        3.022    -0.030    28.726     8.792
    12   6 C        2.919    -0.031    28.768     8.796
    13   6 C        2.918    -0.030    28.753     8.793
    14   6 C        2.920    -0.031    28.776     8.797
    15   1 H        0.926     0.033     2.549     2.497
    16   1 H        0.925     0.034     2.531     2.488
    17   1 H        0.926     0.028     2.617     2.530
    18   1 H        0.926     0.029     2.603     2.523
    19   1 H        0.926     0.028     2.611     2.527
    20   6 C        3.748    -0.045    21.449     6.606
    21   1 H        0.926     0.041     2.441     2.443
    22   1 H        0.925     0.047     2.362     2.403
    23   6 C        3.819    -0.097    22.332     6.725
    24   1 H        0.925     0.041     2.431     2.438
    25   1 H        0.925     0.037     2.488     2.467
    26   1 H        0.925     0.032     2.556     2.500

Wiberg/Mayer (AO) data.
largest (>0.10) Wiberg bond orders for each atom

     #   Z sym  total        # sym  WBO       # sym  WBO       # sym  WBO
 ---------------------------------------------------------------------------
     1  15 P    3.377 --    20 C    1.028     9 C    1.019     2 C    1.014
     2   6 C    3.994 --     1 P    1.014     5 C    1.012     4 H    0.956
                             3 H    0.954
     3   1 H    0.998 --     2 C    0.954
     4   1 H    0.998 --     2 C    0.956
     5   6 C    3.997 --     2 C    1.012     7 H    0.984     6 H    0.983
                             8 H    0.983
     6   1 H    0.999 --     5 C    0.983
     7   1 H    0.999 --     5 C    0.984
     8   1 H    0.999 --     5 C    0.983
     9   6 C    3.982 --    10 C    1.402    11 C    1.390     1 P    1.019
                            14 C    0.106
    10   6 C    3.993 --    12 C    1.440     9 C    1.402    15 H    0.963
                            13 C    0.107
    11   6 C    3.992 --    13 C    1.457     9 C    1.390    16 H    0.962
                            12 C    0.110
    12   6 C    3.993 --    14 C    1.442    10 C    1.440    17 H    0.970
                            11 C    0.110
    13   6 C    3.992 --    11 C    1.457    14 C    1.428    18 H    0.970
                            10 C    0.107
    14   6 C    3.991 --    12 C    1.442    13 C    1.428    19 H    0.971
                             9 C    0.106
    15   1 H    0.999 --    10 C    0.963
    16   1 H    0.999 --    11 C    0.962
    17   1 H    0.999 --    12 C    0.970
    18   1 H    0.999 --    13 C    0.970
    19   1 H    0.998 --    14 C    0.971
    20   6 C    3.995 --     1 P    1.028    23 C    1.015    21 H    0.956
                            22 H    0.951
    21   1 H    0.998 --    20 C    0.956
    22   1 H    0.998 --    20 C    0.951
    23   6 C    3.996 --    20 C    1.015    26 H    0.985    24 H    0.984
                            25 H    0.984
    24   1 H    0.998 --    23 C    0.984
    25   1 H    0.999 --    23 C    0.984
    26   1 H    0.999 --    23 C    0.985
 ---------------------------------------------------------------------------

molecular dipole:
                 x           y           z       tot (Debye)
 q only:       -0.169      -0.190       0.238
   full:       -0.424      -0.128       0.494       1.686

 projected vibrational frequencies (cm⁻¹)
eigval :       -0.00    -0.00    -0.00     0.00     0.00     0.00
eigval :       27.93    69.52    80.69   127.10   129.21   199.57
eigval :      204.14   227.77   261.26   277.08   284.01   356.54
eigval :      363.06   407.00   472.77   585.99   638.43   657.13
eigval :      683.09   704.73   729.26   746.91   791.36   871.21
eigval :      894.55   925.13   931.19   968.65   974.28   998.60
eigval :     1012.30  1021.79  1065.59  1072.83  1085.80  1115.65
eigval :     1123.22  1181.87  1203.22  1225.72  1227.95  1250.91
eigval :     1266.82  1282.18  1316.97  1408.52  1410.68  1421.77
eigval :     1451.09  1454.70  1461.88  1497.36  1501.01  1504.77
eigval :     1508.57  1577.54  1589.13  2938.97  2942.44  2949.57
eigval :     2960.58  3011.47  3013.27  3023.92  3024.78  3034.15
eigval :     3039.04  3058.17  3068.32  3074.68  3087.05  3094.12

   temp. (K)  partition function   enthalpy   heat capacity  entropy
                                   cal/mol     cal/K/mol   cal/K/mol   J/K/mol
 298.15  VIB  0.119E+05             6094.776     39.514     37.092
         ROT  0.113E+07              888.752      2.981     30.681
         INT  0.135E+11             6983.528     42.495     67.773
         TR   0.207E+28             1481.254      4.968     41.214
         TOT                        8464.7822    47.4629   108.9869   456.0010

       T/K    H(0)-H(T)+PV         H(T)/Eh          T*S/Eh         G(T)/Eh
   ------------------------------------------------------------------------
    298.15    0.134895E-01    0.232532E+00    0.517832E-01    0.180749E+00
   ------------------------------------------------------------------------

         :::::::::::::::::::::::::::::::::::::::::::::::::::::
         ::                  THERMODYNAMIC                  ::
         :::::::::::::::::::::::::::::::::::::::::::::::::::::
         :: total free energy         -31.375177331576 Eh   ::
         ::.................................................::
         :: total energy              -31.555926099568 Eh   ::
         :: zero point energy           0.219042454512 Eh   ::
         :: G(RRHO) w/o ZPVE           -0.038293686520 Eh   ::
         :: G(RRHO) contrib.            0.180748767992 Eh   ::
         :::::::::::::::::::::::::::::::::::::::::::::::::::::

           -------------------------------------------------
          | TOTAL ENERGY              -31.555926099568 Eh   |
          | TOTAL ENTHALPY            -31.323394156039 Eh   |
          | TOTAL FREE ENERGY         -31.375177331576 Eh   |
          | GRADIENT NORM               0.000034867020 Eh/α |
          | HOMO-LUMO GAP               3.638288487144 eV   |
           -------------------------------------------------

 * finished run on 2025/07/14 at 11:33:50.108
