   * xtb version 6.7.0 (08769fc) compiled by 'albert@albert-system' on 2024-03-04

   ID    Z sym.   atoms
    1   15 P      1
    2    6 C      2, 5, 9-14, 20, 23
    3    1 H      3, 4, 6-8, 15-19, 21, 22, 24-26

          program call               : /home/minenky/programs/xtb/xtb-dist/bin/xtb m1_00_PEt2Ph-PBE0-D3-TZ-uniMM_7.xyz --charge 0 --T --ohess extreme --cycles 5000 --acc 0.01 --iterations 5000
          :  Hamiltonian                  GFN2-xTB          :
 * total energy  :   -31.5494446 Eh     change        0.7105427E-14 Eh
 * total energy  :   -31.5540288 Eh     change       -0.4584178E-02 Eh
 * total energy  :   -31.5551024 Eh     change       -0.1073619E-02 Eh
 * total energy  :   -31.5556277 Eh     change       -0.5253335E-03 Eh
 * total energy  :   -31.5557869 Eh     change       -0.1591778E-03 Eh
 * total energy  :   -31.5558962 Eh     change       -0.1093258E-03 Eh
 * total energy  :   -31.5559531 Eh     change       -0.5682047E-04 Eh
 * total energy  :   -31.5559952 Eh     change       -0.4209227E-04 Eh
 * total energy  :   -31.5560341 Eh     change       -0.3899463E-04 Eh
 * total energy  :   -31.5560557 Eh     change       -0.2155934E-04 Eh
 * total energy  :   -31.5561090 Eh     change       -0.1482748E-06 Eh
 * total energy  :   -31.5561091 Eh     change       -0.1295220E-06 Eh
 * total energy  :   -31.5561093 Eh     change       -0.1467060E-06 Eh
 * total energy  :   -31.5561094 Eh     change       -0.1720063E-06 Eh
 * total energy  :   -31.5561096 Eh     change       -0.1669191E-06 Eh
 * total energy  :   -31.5561098 Eh     change       -0.1490167E-06 Eh
 * total energy  :   -31.5561099 Eh     change       -0.1165317E-06 Eh
 * total energy  :   -31.5561099 Eh     change       -0.5390439E-07 Eh
 * total energy  :   -31.5561099 Eh     change       -0.5684484E-09 Eh
   *** GEOMETRY OPTIMIZATION CONVERGED AFTER 44 ITERATIONS ***

 final structure:
================
26
 xtb: 6.7.0 (08769fc)
P            1.60709825457954       -0.33001013688765       -2.97078582087242
C            2.48916550263709        1.09385444573089       -2.14582796910094
H            2.49217086031690        0.88222572498498       -1.07279063221102
H            3.52804966117743        1.15101771189515       -2.48167560647106
C            1.76493051053969        2.40754996244789       -2.40543469297837
H            0.73044550721008        2.34205768701153       -2.07361166535321
H            1.76543148795827        2.64108913600547       -3.46902069438010
H            2.24761637107827        3.22470623481389       -1.87161238231600
C            1.81706241146013        0.15360352946710       -4.73543051134016
C            3.00644119870346        0.61772574932985       -5.28558734524187
C            0.69857273309679        0.03686926614651       -5.55320145674218
C            3.07171286668184        0.95576580782455       -6.62471045586839
C            0.76333514903118        0.37296660148728       -6.89354345128945
C            1.95232230764325        0.83403322947582       -7.43172006530547
H            3.89013202184025        0.72263181732913       -4.67230001697124
H           -0.22735535668557       -0.32066868940888       -5.12410368410475
H            4.00106157096749        1.31706305782648       -7.04219305400833
H           -0.11313495772074        0.27738862618048       -7.51816380067004
H            2.00843394690616        1.09984566243868       -8.47731382457924
C            2.97245782385565       -1.60310084460392       -2.89413342289377
H            2.69318445320232       -2.39495148220823       -3.59553603885884
H            3.91500797680402       -1.16693354575388       -3.23587356771282
C            3.12571061984129       -2.18438978573230       -1.49511865087289
H            2.17852589121598       -2.59274596447254       -1.14832188189096
H            3.44599967584589       -1.42019880103722       -0.79009362376951
H            3.86626851181349       -2.98268200029076       -1.49317768419699

          :  Hamiltonian                  GFN2-xTB          :
         :: gradient norm              0.000011528527 Eh/a0 ::
         :: HOMO-LUMO gap              3.638370319060 eV    ::
         :: SCC energy               -32.076727618516 Eh    ::
         :: -> dispersion             -0.023678695555 Eh    ::
         :: repulsion energy           0.520617693726 Eh    ::

    * Orbital Energies and Occupations

         #    Occupation            Energy/Eh            Energy/eV
      -------------------------------------------------------------
         1        2.0000           -0.6578529             -17.9011
       ...           ...                  ...                  ...
        18        2.0000           -0.4774394             -12.9918
        19        2.0000           -0.4745275             -12.9126
        20        2.0000           -0.4629344             -12.5971
        21        2.0000           -0.4620770             -12.5738
        22        2.0000           -0.4534650             -12.3394
        23        2.0000           -0.4448871             -12.1060
        24        2.0000           -0.4376132             -11.9081
        25        2.0000           -0.4232486             -11.5172
        26        2.0000           -0.4184243             -11.3859
        27        2.0000           -0.4045800             -11.0092
        28        2.0000           -0.4044284             -11.0051
        29        2.0000           -0.3968132             -10.7978
        30        2.0000           -0.3669914              -9.9863 (HOMO)
        31                         -0.2332837              -6.3480 (LUMO)
        32                         -0.2229858              -6.0678
        33                         -0.1564008              -4.2559
        34                         -0.1498182              -4.0768
        35                         -0.0930176              -2.5311
        36                          0.0045918               0.1249
        37                          0.0553185               1.5053
        38                          0.0889950               2.4217
        39                          0.0955609               2.6003
        40                          0.1356448               3.6911
        41                          0.1377621               3.7487
       ...                                ...                  ...
        64                          0.7863572              21.3979
      -------------------------------------------------------------
                  HL-Gap            0.1337076 Eh            3.6384 eV

     #   Z          covCN         q      C6AA      α(0)
     1  15 P        3.046    -0.116   165.504    23.111
     2   6 C        3.748    -0.045    21.446     6.605
     3   1 H        0.926     0.039     2.464     2.455
     4   1 H        0.925     0.042     2.425     2.435
     5   6 C        3.820    -0.096    22.314     6.722
     6   1 H        0.925     0.041     2.435     2.440
     7   1 H        0.925     0.035     2.510     2.477
     8   1 H        0.925     0.032     2.555     2.500
     9   6 C        2.916     0.008    27.844     8.653
    10   6 C        2.960    -0.028    28.705     8.788
    11   6 C        3.016    -0.030    28.736     8.793
    12   6 C        2.919    -0.031    28.780     8.797
    13   6 C        2.918    -0.030    28.741     8.791
    14   6 C        2.920    -0.029    28.731     8.790
    15   1 H        0.926     0.032     2.559     2.502
    16   1 H        0.925     0.040     2.454     2.450
    17   1 H        0.926     0.028     2.611     2.527
    18   1 H        0.926     0.030     2.580     2.512
    19   1 H        0.926     0.029     2.596     2.519
    20   6 C        3.748    -0.046    21.472     6.609
    21   1 H        0.926     0.038     2.469     2.457
    22   1 H        0.925     0.043     2.413     2.429
    23   6 C        3.812    -0.098    22.355     6.730
    24   1 H        0.925     0.042     2.423     2.434
    25   1 H        0.925     0.037     2.493     2.469
    26   1 H        0.925     0.033     2.538     2.491

Wiberg/Mayer (AO) data.
largest (>0.10) Wiberg bond orders for each atom

     #   Z sym  total        # sym  WBO       # sym  WBO       # sym  WBO
 ---------------------------------------------------------------------------
     1  15 P    3.345 --     2 C    1.027    20 C    1.022     9 C    1.006
     2   6 C    3.993 --     1 P    1.027     5 C    1.016     3 H    0.958
                             4 H    0.950
     3   1 H    0.998 --     2 C    0.958
     4   1 H    0.998 --     2 C    0.950
     5   6 C    3.997 --     2 C    1.016     8 H    0.985     6 H    0.984
                             7 H    0.984
     6   1 H    0.998 --     5 C    0.984
     7   1 H    0.999 --     5 C    0.984
     8   1 H    0.999 --     5 C    0.985
     9   6 C    3.983 --    11 C    1.408    10 C    1.400     1 P    1.006
                            14 C    0.108
    10   6 C    3.992 --    12 C    1.450     9 C    1.400    15 H    0.961
                            13 C    0.111
    11   6 C    3.991 --    13 C    1.443     9 C    1.408    16 H    0.964
                            12 C    0.108
    12   6 C    3.993 --    10 C    1.450    14 C    1.432    17 H    0.970
                            11 C    0.108
    13   6 C    3.992 --    11 C    1.443    14 C    1.441    18 H    0.970
                            10 C    0.111
    14   6 C    3.989 --    13 C    1.441    12 C    1.432    19 H    0.971
                             9 C    0.108
    15   1 H    0.999 --    10 C    0.961
    16   1 H    0.998 --    11 C    0.964
    17   1 H    0.999 --    12 C    0.970
    18   1 H    0.999 --    13 C    0.970
    19   1 H    0.998 --    14 C    0.971
    20   6 C    3.995 --     1 P    1.022    23 C    1.016    21 H    0.959
                            22 H    0.951
    21   1 H    0.998 --    20 C    0.959
    22   1 H    0.998 --    20 C    0.951
    23   6 C    3.996 --    20 C    1.016    25 H    0.985    24 H    0.985
                            26 H    0.984
    24   1 H    0.998 --    23 C    0.985
    25   1 H    0.999 --    23 C    0.985
    26   1 H    0.998 --    23 C    0.984
 ---------------------------------------------------------------------------

molecular dipole:
                 x           y           z       tot (Debye)
 q only:        0.249       0.047       0.031
   full:        0.616       0.148      -0.118       1.638

 projected vibrational frequencies (cm⁻¹)
eigval :       -0.00    -0.00    -0.00     0.00     0.00     0.00
eigval :       21.14    52.08    71.70    94.88   141.85   166.65
eigval :      203.58   215.52   224.57   266.10   312.32   329.10
eigval :      363.39   426.10   450.30   586.06   655.57   660.51
eigval :      686.45   701.53   739.09   754.48   777.81   874.80
eigval :      898.97   926.64   932.78   968.76   974.89   997.35
eigval :     1013.08  1016.94  1071.34  1076.68  1083.14  1117.40
eigval :     1121.34  1181.65  1198.83  1220.65  1225.86  1250.25
eigval :     1255.36  1278.27  1315.54  1409.40  1411.26  1423.42
eigval :     1445.51  1450.36  1458.44  1497.36  1498.58  1501.86
eigval :     1502.25  1579.85  1589.64  2929.89  2935.49  2947.00
eigval :     2950.21  3013.45  3014.13  3020.06  3026.68  3029.48
eigval :     3033.55  3063.19  3063.99  3071.88  3077.42  3087.95

   temp. (K)  partition function   enthalpy   heat capacity  entropy
                                   cal/mol     cal/K/mol   cal/K/mol   J/K/mol
 298.15  VIB  0.321E+05             6238.923     39.237     38.695
         ROT  0.122E+07              888.752      2.981     30.823
         INT  0.390E+11             7127.675     42.218     69.518
         TR   0.207E+28             1481.254      4.968     41.214
         TOT                        8608.9293    47.1861   110.7313   463.2999

       T/K    H(0)-H(T)+PV         H(T)/Eh          T*S/Eh         G(T)/Eh
   ------------------------------------------------------------------------
    298.15    0.137192E-01    0.232272E+00    0.526120E-01    0.179660E+00
   ------------------------------------------------------------------------

         :::::::::::::::::::::::::::::::::::::::::::::::::::::
         ::                  THERMODYNAMIC                  ::
         :::::::::::::::::::::::::::::::::::::::::::::::::::::
         :: total free energy         -31.376449929666 Eh   ::
         ::.................................................::
         :: total energy              -31.556109924790 Eh   ::
         :: zero point energy           0.218552821561 Eh   ::
         :: G(RRHO) w/o ZPVE           -0.038892826437 Eh   ::
         :: G(RRHO) contrib.            0.179659995124 Eh   ::
         :::::::::::::::::::::::::::::::::::::::::::::::::::::

           -------------------------------------------------
          | TOTAL ENERGY              -31.556109924790 Eh   |
          | TOTAL ENTHALPY            -31.323837901145 Eh   |
          | TOTAL FREE ENERGY         -31.376449929666 Eh   |
          | GRADIENT NORM               0.000011528848 Eh/α |
          | HOMO-LUMO GAP               3.638370295206 eV   |
           -------------------------------------------------

 * finished run on 2025/07/14 at 11:38:08.180
