   * xtb version 6.7.0 (08769fc) compiled by 'albert@albert-system' on 2024-03-04

   ID    Z sym.   atoms
    1   15 P      1
    2    6 C      2, 5, 9-14, 20, 23
    3    1 H      3, 4, 6-8, 15-19, 21, 22, 24-26

          program call               : /home/minenky/programs/xtb/xtb-dist/bin/xtb m1_00_PEt2Ph-PBE0-D3-TZ-uniMM_19.xyz --charge 0 --T --ohess extreme --cycles 5000 --acc 0.01 --iterations 5000
          :  Hamiltonian                  GFN2-xTB          :
 * total energy  :   -31.5476084 Eh     change       -0.3552714E-13 Eh
 * total energy  :   -31.5518197 Eh     change       -0.4211356E-02 Eh
 * total energy  :   -31.5525985 Eh     change       -0.7788270E-03 Eh
 * total energy  :   -31.5529797 Eh     change       -0.3811636E-03 Eh
 * total energy  :   -31.5531275 Eh     change       -0.1477963E-03 Eh
 * total energy  :   -31.5532597 Eh     change       -0.1322174E-03 Eh
 * total energy  :   -31.5533669 Eh     change       -0.1072089E-03 Eh
 * total energy  :   -31.5534491 Eh     change       -0.8212744E-04 Eh
 * total energy  :   -31.5535104 Eh     change       -0.6135215E-04 Eh
 * total energy  :   -31.5535761 Eh     change       -0.6572077E-04 Eh
 * total energy  :   -31.5542491 Eh     change       -0.7241098E-06 Eh
 * total energy  :   -31.5542494 Eh     change       -0.3022378E-06 Eh
 * total energy  :   -31.5542493 Eh     change        0.9650256E-07 Eh
 * total energy  :   -31.5542495 Eh     change       -0.2131821E-06 Eh
 * total energy  :   -31.5542496 Eh     change       -0.6805420E-07 Eh
 * total energy  :   -31.5542497 Eh     change       -0.8122115E-07 Eh
 * total energy  :   -31.5542496 Eh     change        0.1573242E-07 Eh
 * total energy  :   -31.5542497 Eh     change       -0.7525628E-07 Eh
 * total energy  :   -31.5542498 Eh     change       -0.4638550E-07 Eh
   *** GEOMETRY OPTIMIZATION CONVERGED AFTER 34 ITERATIONS ***

 final structure:
================
26
 xtb: 6.7.0 (08769fc)
P            1.67403111823589       -0.30066999311023       -2.93465712146174
C            0.10640260972747        0.46897622616150       -3.58962253933456
H           -0.29483310795236       -0.13748272309806       -4.40739483861367
H           -0.61257655430685        0.46766914393484       -2.76522713388580
C            0.33097397119983        1.90290539663892       -4.05209772823574
H            0.97792002055239        1.93364092232940       -4.92588901617796
H            0.79291257127201        2.49030659434720       -3.26073741129829
H           -0.61725307146435        2.36852056971062       -4.31707835759418
C            1.13807859184851       -2.04386081018785       -2.72301434214168
C            2.14928037837172       -2.96076135584107       -2.43888342381558
C           -0.17855717387595       -2.48729404052308       -2.73190591581913
C            1.85991159427752       -4.29231739688577       -2.21649766423842
C           -0.46881357829670       -3.82243675953730       -2.50656675731515
C            0.54548105409467       -4.72917958259371       -2.25582819937431
H            3.17395193040939       -2.61552156500591       -2.38951454847207
H           -0.98974097966989       -1.79931345822811       -2.91427947356241
H            2.65710471557088       -4.99067414247853       -2.00546833097120
H           -1.49713710147167       -4.15474182659574       -2.52570456637112
H            0.31337644445897       -5.76970653098006       -2.08228553090108
C            2.60453345287710       -0.52555565061889       -4.54884322990090
H            3.05418632049068       -1.52098193169873       -4.53931486820929
H            1.89692568946046       -0.48238613137528       -5.38137527043920
C            3.69859501097987        0.52256779787227       -4.71517518214335
H            4.41646435513886        0.44986704330302       -3.90082694454913
H            3.28482455008340        1.52831652487184       -4.70743688316585
H            4.22755818798841        0.37548467958788       -5.65580072200841

          :  Hamiltonian                  GFN2-xTB          :
         :: gradient norm              0.000028703942 Eh/a0 ::
         :: HOMO-LUMO gap              3.652850468264 eV    ::
         :: SCC energy               -32.074656313308 Eh    ::
         :: -> dispersion             -0.023404418568 Eh    ::
         :: repulsion energy           0.520406557367 Eh    ::

    * Orbital Energies and Occupations

         #    Occupation            Energy/Eh            Energy/eV
      -------------------------------------------------------------
         1        2.0000           -0.6583607             -17.9149
       ...           ...                  ...                  ...
        18        2.0000           -0.4771208             -12.9831
        19        2.0000           -0.4762949             -12.9606
        20        2.0000           -0.4636400             -12.6163
        21        2.0000           -0.4604398             -12.5292
        22        2.0000           -0.4528448             -12.3225
        23        2.0000           -0.4461689             -12.1409
        24        2.0000           -0.4381323             -11.9222
        25        2.0000           -0.4239566             -11.5364
        26        2.0000           -0.4145740             -11.2811
        27        2.0000           -0.4075522             -11.0901
        28        2.0000           -0.4027053             -10.9582
        29        2.0000           -0.3997769             -10.8785
        30        2.0000           -0.3644170              -9.9163 (HOMO)
        31                         -0.2301773              -6.2634 (LUMO)
        32                         -0.2216018              -6.0301
        33                         -0.1591458              -4.3306
        34                         -0.1503247              -4.0905
        35                         -0.0941960              -2.5632
        36                          0.0041867               0.1139
        37                          0.0596559               1.6233
        38                          0.0905127               2.4630
        39                          0.1082328               2.9452
        40                          0.1183077               3.2193
        41                          0.1398531               3.8056
       ...                                ...                  ...
        64                          0.7903344              21.5061
      -------------------------------------------------------------
                  HL-Gap            0.1342398 Eh            3.6529 eV

     #   Z          covCN         q      C6AA      α(0)
     1  15 P        3.045    -0.104   164.945    23.072
     2   6 C        3.748    -0.046    21.472     6.609
     3   1 H        0.925     0.043     2.410     2.428
     4   1 H        0.926     0.041     2.439     2.442
     5   6 C        3.813    -0.097    22.329     6.726
     6   1 H        0.925     0.038     2.476     2.461
     7   1 H        0.925     0.041     2.433     2.439
     8   1 H        0.925     0.032     2.557     2.501
     9   6 C        2.915     0.005    27.911     8.663
    10   6 C        3.028    -0.031    28.747     8.795
    11   6 C        2.958    -0.034    28.836     8.808
    12   6 C        2.918    -0.030    28.749     8.793
    13   6 C        2.920    -0.030    28.756     8.794
    14   6 C        2.920    -0.031    28.767     8.795
    15   1 H        0.925     0.035     2.518     2.482
    16   1 H        0.926     0.033     2.551     2.498
    17   1 H        0.926     0.029     2.596     2.520
    18   1 H        0.926     0.029     2.608     2.525
    19   1 H        0.926     0.029     2.602     2.522
    20   6 C        3.747    -0.048    21.498     6.613
    21   1 H        0.925     0.042     2.423     2.434
    22   1 H        0.925     0.042     2.422     2.434
    23   6 C        3.810    -0.098    22.367     6.732
    24   1 H        0.925     0.041     2.440     2.443
    25   1 H        0.925     0.039     2.463     2.454
    26   1 H        0.925     0.031     2.570     2.507

Wiberg/Mayer (AO) data.
largest (>0.10) Wiberg bond orders for each atom

     #   Z sym  total        # sym  WBO       # sym  WBO       # sym  WBO
 ---------------------------------------------------------------------------
     1  15 P    3.361 --     2 C    1.030     9 C    1.019    20 C    1.009
     2   6 C    3.995 --     1 P    1.030     5 C    1.015     4 H    0.956
                             3 H    0.952
     3   1 H    0.998 --     2 C    0.952
     4   1 H    0.998 --     2 C    0.956
     5   6 C    3.996 --     2 C    1.015     7 H    0.984     8 H    0.984
                             6 H    0.983
     6   1 H    0.998 --     5 C    0.983
     7   1 H    0.998 --     5 C    0.984
     8   1 H    0.999 --     5 C    0.984
     9   6 C    3.981 --    11 C    1.404    10 C    1.389     1 P    1.019
                            14 C    0.106
    10   6 C    3.992 --    12 C    1.457     9 C    1.389    15 H    0.961
                            13 C    0.110
    11   6 C    3.991 --    13 C    1.439     9 C    1.404    16 H    0.964
                            12 C    0.107
    12   6 C    3.992 --    10 C    1.457    14 C    1.427    17 H    0.970
                            11 C    0.107
    13   6 C    3.992 --    14 C    1.442    11 C    1.439    18 H    0.970
                            10 C    0.110
    14   6 C    3.991 --    13 C    1.442    12 C    1.427    19 H    0.971
                             9 C    0.106
    15   1 H    0.999 --    10 C    0.961
    16   1 H    0.999 --    11 C    0.964
    17   1 H    0.999 --    12 C    0.970
    18   1 H    0.999 --    13 C    0.970
    19   1 H    0.998 --    14 C    0.971
    20   6 C    3.996 --    23 C    1.018     1 P    1.009    21 H    0.958
                            22 H    0.955
    21   1 H    0.998 --    20 C    0.958
    22   1 H    0.998 --    20 C    0.955
    23   6 C    3.995 --    20 C    1.018    24 H    0.986    26 H    0.984
                            25 H    0.983
    24   1 H    0.998 --    23 C    0.986
    25   1 H    0.998 --    23 C    0.983
    26   1 H    0.998 --    23 C    0.984
 ---------------------------------------------------------------------------

molecular dipole:
                 x           y           z       tot (Debye)
 q only:       -0.057       0.083      -0.295
   full:       -0.241      -0.097      -0.570       1.593

 projected vibrational frequencies (cm⁻¹)
eigval :       -0.00    -0.00    -0.00    -0.00    -0.00     0.00
eigval :       35.47    69.19    81.80   120.93   136.29   179.40
eigval :      211.03   222.79   246.22   272.97   277.27   319.28
eigval :      363.42   417.67   474.09   585.92   648.68   663.91
eigval :      684.45   705.23   735.41   743.35   796.02   872.20
eigval :      896.31   926.06   931.61   968.77   972.90  1009.27
eigval :     1014.75  1019.39  1070.19  1073.27  1085.80  1115.28
eigval :     1123.06  1181.71  1203.36  1224.37  1231.01  1251.07
eigval :     1256.82  1281.80  1317.51  1409.10  1411.19  1421.56
eigval :     1443.40  1453.00  1461.33  1494.05  1498.37  1503.12
eigval :     1509.45  1577.66  1589.24  2923.71  2937.22  2944.53
eigval :     2961.80  3012.11  3013.04  3025.68  3028.57  3035.11
eigval :     3038.15  3050.92  3068.50  3074.30  3087.23  3094.94

   temp. (K)  partition function   enthalpy   heat capacity  entropy
                                   cal/mol     cal/K/mol   cal/K/mol   J/K/mol
 298.15  VIB  0.109E+05             6134.322     39.680     37.438
         ROT  0.124E+07              888.752      2.981     30.864
         INT  0.135E+11             7023.074     42.660     68.302
         TR   0.207E+28             1481.254      4.968     41.214
         TOT                        8504.3283    47.6286   109.5157   458.2136

       T/K    H(0)-H(T)+PV         H(T)/Eh          T*S/Eh         G(T)/Eh
   ------------------------------------------------------------------------
    298.15    0.135525E-01    0.232449E+00    0.520344E-01    0.180415E+00
   ------------------------------------------------------------------------

         :::::::::::::::::::::::::::::::::::::::::::::::::::::
         ::                  THERMODYNAMIC                  ::
         :::::::::::::::::::::::::::::::::::::::::::::::::::::
         :: total free energy         -31.373834833547 Eh   ::
         ::.................................................::
         :: total energy              -31.554249755941 Eh   ::
         :: zero point energy           0.218896848138 Eh   ::
         :: G(RRHO) w/o ZPVE           -0.038481925745 Eh   ::
         :: G(RRHO) contrib.            0.180414922393 Eh   ::
         :::::::::::::::::::::::::::::::::::::::::::::::::::::

           -------------------------------------------------
          | TOTAL ENERGY              -31.554249755941 Eh   |
          | TOTAL ENTHALPY            -31.321800397966 Eh   |
          | TOTAL FREE ENERGY         -31.373834833547 Eh   |
          | GRADIENT NORM               0.000028704383 Eh/α |
          | HOMO-LUMO GAP               3.652850474357 eV   |
           -------------------------------------------------

 * finished run on 2025/07/14 at 11:27:44.498
