   * xtb version 6.7.0 (08769fc) compiled by 'albert@albert-system' on 2024-03-04

   ID    Z sym.   atoms
    1   15 P      1
    2    6 C      2, 5, 9-14, 20, 23
    3    1 H      3, 4, 6-8, 15-19, 21, 22, 24-26

          program call               : /home/minenky/programs/xtb/xtb-dist/bin/xtb m1_00_PEt2Ph-PBE0-D3-TZ-uniMM_36.xyz --charge 0 --T --ohess extreme --cycles 5000 --acc 0.01 --iterations 5000
          :  Hamiltonian                  GFN2-xTB          :
 * total energy  :   -31.5459583 Eh     change        0.0000000E+00 Eh
 * total energy  :   -31.5501111 Eh     change       -0.4152838E-02 Eh
 * total energy  :   -31.5513440 Eh     change       -0.1232853E-02 Eh
 * total energy  :   -31.5518692 Eh     change       -0.5252172E-03 Eh
 * total energy  :   -31.5521173 Eh     change       -0.2481714E-03 Eh
 * total energy  :   -31.5522875 Eh     change       -0.1701718E-03 Eh
 * total energy  :   -31.5524003 Eh     change       -0.1128010E-03 Eh
 * total energy  :   -31.5524756 Eh     change       -0.7532349E-04 Eh
 * total energy  :   -31.5525217 Eh     change       -0.4601964E-04 Eh
 * total energy  :   -31.5525593 Eh     change       -0.3760605E-04 Eh
 * total energy  :   -31.5570206 Eh     change       -0.3443250E-06 Eh
 * total energy  :   -31.5570209 Eh     change       -0.3506970E-06 Eh
 * total energy  :   -31.5570212 Eh     change       -0.3187498E-06 Eh
 * total energy  :   -31.5570215 Eh     change       -0.2565288E-06 Eh
 * total energy  :   -31.5570217 Eh     change       -0.2177727E-06 Eh
 * total energy  :   -31.5570219 Eh     change       -0.1947704E-06 Eh
 * total energy  :   -31.5570221 Eh     change       -0.1494276E-06 Eh
 * total energy  :   -31.5570221 Eh     change       -0.8423423E-07 Eh
 * total energy  :   -31.5570222 Eh     change       -0.4689062E-07 Eh
   *** GEOMETRY OPTIMIZATION CONVERGED AFTER 103 ITERATIONS ***

 final structure:
================
26
 xtb: 6.7.0 (08769fc)
P            1.44444689829843       -0.22301347524235       -2.71711320743629
C            0.37391945931571        0.51511310623473       -4.05608490985045
H           -0.58465324696644        0.76341774581976       -3.59103690700502
H            0.81649884485167        1.44051966714544       -4.43376199913607
C            0.16145735508007       -0.47694025884514       -5.19108167672952
H           -0.27916430692777       -1.39769378107407       -4.81375477959230
H            1.11125075203899       -0.72378653107260       -5.66322774369395
H           -0.50250885972240       -0.06073605798370       -5.94700567520210
C            3.04132934595344       -0.32102841886067       -3.62944670853155
C            3.71557068251154       -1.53616850192004       -3.58269380450009
C            3.59911537359021        0.73086295472211       -4.34679197001713
C            4.92285241665164       -1.70095028974003       -4.23775449916057
C            4.80549439997939        0.56715215969911       -5.00210371244733
C            5.47003440610836       -0.64737698857698       -4.94953934283518
H            3.28070811893778       -2.35375395112521       -3.02428438565805
H            3.09611530457706        1.68623984663687       -4.39966038990849
H            5.43732311027679       -2.65009873713008       -4.19350319236611
H            5.23093328700426        1.39129956501829       -5.55739253661885
H            6.41249156407153       -0.77018377793235       -5.46315954751105
C            1.74966630649773        1.34092319855572       -1.74507828635292
H            2.02441302248155        2.15993243781092       -2.41492662569664
H            0.80341620029816        1.60110614366378       -1.26171295154759
C            2.83019088722422        1.12576484402335       -0.69451944371599
H            3.77724147334394        0.87355817618605       -1.16932892548595
H            2.55635070267105        0.30935814883009       -0.02907976748749
H            2.97150050185253        2.02534977515718       -0.09762801151366

          :  Hamiltonian                  GFN2-xTB          :
         :: gradient norm              0.000043293925 Eh/a0 ::
         :: HOMO-LUMO gap              3.636641016029 eV    ::
         :: SCC energy               -32.077696079454 Eh    ::
         :: -> dispersion             -0.024035870497 Eh    ::
         :: repulsion energy           0.520673887296 Eh    ::

    * Orbital Energies and Occupations

         #    Occupation            Energy/Eh            Energy/eV
      -------------------------------------------------------------
         1        2.0000           -0.6581209             -17.9084
       ...           ...                  ...                  ...
        18        2.0000           -0.4773508             -12.9894
        19        2.0000           -0.4746429             -12.9157
        20        2.0000           -0.4704319             -12.8011
        21        2.0000           -0.4562952             -12.4164
        22        2.0000           -0.4562257             -12.4145
        23        2.0000           -0.4423132             -12.0360
        24        2.0000           -0.4364953             -11.8776
        25        2.0000           -0.4232563             -11.5174
        26        2.0000           -0.4194562             -11.4140
        27        2.0000           -0.4052652             -11.0278
        28        2.0000           -0.4045300             -11.0078
        29        2.0000           -0.3970097             -10.8032
        30        2.0000           -0.3672843              -9.9943 (HOMO)
        31                         -0.2336402              -6.3577 (LUMO)
        32                         -0.2230324              -6.0690
        33                         -0.1548737              -4.2143
        34                         -0.1507536              -4.1022
        35                         -0.0927983              -2.5252
        36                          0.0046150               0.1256
        37                          0.0547660               1.4903
        38                          0.0923117               2.5119
        39                          0.1109847               3.0200
        40                          0.1352485               3.6803
        41                          0.1375676               3.7434
       ...                                ...                  ...
        64                          0.7795875              21.2137
      -------------------------------------------------------------
                  HL-Gap            0.1336441 Eh            3.6366 eV

     #   Z          covCN         q      C6AA      α(0)
     1  15 P        3.056    -0.118   165.593    23.117
     2   6 C        3.748    -0.047    21.475     6.610
     3   1 H        0.926     0.039     2.469     2.457
     4   1 H        0.925     0.042     2.420     2.432
     5   6 C        3.821    -0.096    22.316     6.723
     6   1 H        0.925     0.042     2.428     2.437
     7   1 H        0.925     0.036     2.501     2.473
     8   1 H        0.925     0.033     2.546     2.495
     9   6 C        2.916     0.011    27.768     8.641
    10   6 C        3.016    -0.030    28.728     8.792
    11   6 C        2.961    -0.027    28.681     8.784
    12   6 C        2.918    -0.030    28.749     8.792
    13   6 C        2.919    -0.031    28.784     8.798
    14   6 C        2.920    -0.029    28.734     8.790
    15   1 H        0.925     0.040     2.451     2.448
    16   1 H        0.926     0.032     2.563     2.504
    17   1 H        0.926     0.030     2.588     2.516
    18   1 H        0.926     0.028     2.619     2.531
    19   1 H        0.926     0.029     2.603     2.523
    20   6 C        3.748    -0.047    21.475     6.610
    21   1 H        0.925     0.042     2.419     2.432
    22   1 H        0.926     0.039     2.468     2.457
    23   6 C        3.821    -0.096    22.317     6.723
    24   1 H        0.925     0.036     2.501     2.473
    25   1 H        0.925     0.042     2.428     2.437
    26   1 H        0.925     0.033     2.546     2.495

Wiberg/Mayer (AO) data.
largest (>0.10) Wiberg bond orders for each atom

     #   Z sym  total        # sym  WBO       # sym  WBO       # sym  WBO
 ---------------------------------------------------------------------------
     1  15 P    3.349 --     2 C    1.025    20 C    1.024     9 C    1.007
     2   6 C    3.993 --     1 P    1.025     5 C    1.017     3 H    0.958
                             4 H    0.951
     3   1 H    0.998 --     2 C    0.958
     4   1 H    0.998 --     2 C    0.951
     5   6 C    3.995 --     2 C    1.017     6 H    0.985     8 H    0.984
                             7 H    0.984
     6   1 H    0.998 --     5 C    0.985
     7   1 H    0.999 --     5 C    0.984
     8   1 H    0.999 --     5 C    0.984
     9   6 C    3.983 --    10 C    1.408    11 C    1.400     1 P    1.007
                            14 C    0.108
    10   6 C    3.992 --    12 C    1.443     9 C    1.408    15 H    0.964
                            13 C    0.108
    11   6 C    3.993 --    13 C    1.450     9 C    1.400    16 H    0.961
                            12 C    0.111
    12   6 C    3.992 --    10 C    1.443    14 C    1.441    17 H    0.970
                            11 C    0.111
    13   6 C    3.993 --    11 C    1.450    14 C    1.432    18 H    0.970
                            10 C    0.108
    14   6 C    3.985 --    12 C    1.441    13 C    1.432    19 H    0.971
                             9 C    0.108
    15   1 H    0.998 --    10 C    0.964
    16   1 H    0.999 --    11 C    0.961
    17   1 H    0.999 --    12 C    0.970
    18   1 H    0.999 --    13 C    0.970
    19   1 H    0.999 --    14 C    0.971
    20   6 C    3.993 --     1 P    1.024    23 C    1.017    22 H    0.958
                            21 H    0.951
    21   1 H    0.998 --    20 C    0.951
    22   1 H    0.998 --    20 C    0.958
    23   6 C    3.995 --    20 C    1.017    25 H    0.985    26 H    0.984
                            24 H    0.984
    24   1 H    0.999 --    23 C    0.984
    25   1 H    0.998 --    23 C    0.985
    26   1 H    0.999 --    23 C    0.984
 ---------------------------------------------------------------------------

molecular dipole:
                 x           y           z       tot (Debye)
 q only:        0.017       0.221      -0.088
   full:        0.165       0.548      -0.293       1.633

 projected vibrational frequencies (cm⁻¹)
eigval :       -0.00    -0.00    -0.00     0.00     0.00     0.00
eigval :       17.92    50.36    65.08   121.10   122.34   164.13
eigval :      199.56   213.88   232.22   295.30   318.41   320.43
eigval :      363.61   401.37   450.37   586.13   657.50   668.66
eigval :      687.38   704.80   735.15   753.34   780.21   875.02
eigval :      899.15   926.85   932.97   969.39   975.74   998.58
eigval :     1003.57  1020.14  1062.83  1082.81  1085.09  1116.94
eigval :     1121.51  1181.71  1198.84  1217.03  1229.79  1244.59
eigval :     1255.36  1278.93  1315.79  1410.36  1410.99  1423.62
eigval :     1442.68  1449.84  1458.00  1497.22  1497.33  1501.63
eigval :     1501.83  1579.97  1589.63  2931.50  2936.85  2944.70
eigval :     2951.24  3014.00  3014.46  3019.48  3019.53  3029.49
eigval :     3030.57  3061.36  3063.66  3070.72  3076.91  3087.71

   temp. (K)  partition function   enthalpy   heat capacity  entropy
                                   cal/mol     cal/K/mol   cal/K/mol   J/K/mol
 298.15  VIB  0.379E+05             6235.560     39.145     38.705
         ROT  0.118E+07              888.752      2.981     30.762
         INT  0.447E+11             7124.313     42.126     69.466
         TR   0.207E+28             1481.254      4.968     41.214
         TOT                        8605.5666    47.0937   110.6797   463.0839

       T/K    H(0)-H(T)+PV         H(T)/Eh          T*S/Eh         G(T)/Eh
   ------------------------------------------------------------------------
    298.15    0.137138E-01    0.232229E+00    0.525875E-01    0.179642E+00
   ------------------------------------------------------------------------

         :::::::::::::::::::::::::::::::::::::::::::::::::::::
         ::                  THERMODYNAMIC                  ::
         :::::::::::::::::::::::::::::::::::::::::::::::::::::
         :: total free energy         -31.377380506625 Eh   ::
         ::.................................................::
         :: total energy              -31.557022192157 Eh   ::
         :: zero point energy           0.218515348851 Eh   ::
         :: G(RRHO) w/o ZPVE           -0.038873663318 Eh   ::
         :: G(RRHO) contrib.            0.179641685533 Eh   ::
         :::::::::::::::::::::::::::::::::::::::::::::::::::::

           -------------------------------------------------
          | TOTAL ENERGY              -31.557022192157 Eh   |
          | TOTAL ENTHALPY            -31.324793000064 Eh   |
          | TOTAL FREE ENERGY         -31.377380506625 Eh   |
          | GRADIENT NORM               0.000043293138 Eh/α |
          | HOMO-LUMO GAP               3.636640968243 eV   |
           -------------------------------------------------

 * finished run on 2025/07/14 at 11:31:05.390
