   * xtb version 6.7.0 (08769fc) compiled by 'albert@albert-system' on 2024-03-04

   ID    Z sym.   atoms
    1   15 P      1
    2    6 C      2, 5, 9-14, 20, 23
    3    1 H      3, 4, 6-8, 15-19, 21, 22, 24-26

          program call               : /home/minenky/programs/xtb/xtb-dist/bin/xtb m1_00_PEt2Ph-PBE0-D3-TZ-uniMM_10.xyz --charge 0 --T --ohess extreme --cycles 5000 --acc 0.01 --iterations 5000
          :  Hamiltonian                  GFN2-xTB          :
 * total energy  :   -31.5482039 Eh     change        0.6394885E-13 Eh
 * total energy  :   -31.5497218 Eh     change       -0.1517901E-02 Eh
 * total energy  :   -31.5500738 Eh     change       -0.3520145E-03 Eh
 * total energy  :   -31.5501820 Eh     change       -0.1081982E-03 Eh
 * total energy  :   -31.5502605 Eh     change       -0.7855722E-04 Eh
 * total energy  :   -31.5503317 Eh     change       -0.7120664E-04 Eh
 * total energy  :   -31.5504230 Eh     change       -0.9128170E-04 Eh
 * total energy  :   -31.5505661 Eh     change       -0.1431173E-03 Eh
 * total energy  :   -31.5507723 Eh     change       -0.2061312E-03 Eh
 * total energy  :   -31.5510272 Eh     change       -0.2549527E-03 Eh
 * total energy  :   -31.5556573 Eh     change       -0.2562853E-05 Eh
 * total energy  :   -31.5556597 Eh     change       -0.2337677E-05 Eh
 * total energy  :   -31.5556616 Eh     change       -0.1953528E-05 Eh
 * total energy  :   -31.5556631 Eh     change       -0.1470440E-05 Eh
 * total energy  :   -31.5556642 Eh     change       -0.1084493E-05 Eh
 * total energy  :   -31.5556649 Eh     change       -0.6860480E-06 Eh
 * total energy  :   -31.5556653 Eh     change       -0.4308530E-06 Eh
 * total energy  :   -31.5556656 Eh     change       -0.3098514E-06 Eh
 * total energy  :   -31.5556656 Eh     change       -0.2963610E-08 Eh
   *** GEOMETRY OPTIMIZATION CONVERGED AFTER 68 ITERATIONS ***

 final structure:
================
26
 xtb: 6.7.0 (08769fc)
P            1.76512952494784       -0.49902694697245       -3.06439479888897
C            1.69564480519176       -1.47869211044943       -1.48087376022686
H            2.52782570248869       -1.12184476314789       -0.86639178747541
H            0.76722778456555       -1.28556190238174       -0.93926558975393
C            1.86830901967551       -2.96827485869496       -1.75475857181294
H            2.82273539144445       -3.15195063877547       -2.24383271268226
H            1.08190942809143       -3.33845520384179       -2.40985712031170
H            1.84106834348746       -3.53636520310014       -0.82584269527579
C            0.02120837009686       -0.52189689127961       -3.63921769856114
C           -0.24927032199792        0.26733608235921       -4.75579122569576
C           -1.00291101337931       -1.29164848600952       -3.10265451931826
C           -1.51795766696781        0.31857470749167       -5.29848508273036
C           -2.27378710007620       -1.24449201190675       -3.65051537986534
C           -2.53768273545863       -0.43764540709114       -4.74299320317765
H            0.55258683185739        0.84424418426577       -5.19746431277464
H           -0.82528619417000       -1.93317590454632       -2.25309678879908
H           -1.71324081604754        0.94248070898431       -6.15889462791342
H           -3.06301529346509       -1.84400515782837       -3.21902166063530
H           -3.53140042172487       -0.40341284355798       -5.16507597871634
C            1.77745309182847        1.22926927507001       -2.35163076797696
H            2.76001432498005        1.36415353125779       -1.88989140641168
H            1.72755460264494        1.90779186896316       -3.20787983338697
C            0.67316603451434        1.56914795610893       -1.36022651046564
H            0.77874543680046        0.99912019613702       -0.44060890429353
H           -0.30622244923629        1.36199199870326       -1.78808094380383
H            0.71876731990806        2.62729682024148       -1.10659911904627

          :  Hamiltonian                  GFN2-xTB          :
         :: gradient norm              0.000042917811 Eh/a0 ::
         :: HOMO-LUMO gap              3.647817870224 eV    ::
         :: SCC energy               -32.076679534473 Eh    ::
         :: -> dispersion             -0.024317845507 Eh    ::
         :: repulsion energy           0.521013914415 Eh    ::

    * Orbital Energies and Occupations

         #    Occupation            Energy/Eh            Energy/eV
      -------------------------------------------------------------
         1        2.0000           -0.6587657             -17.9259
       ...           ...                  ...                  ...
        18        2.0000           -0.4754164             -12.9367
        19        2.0000           -0.4741860             -12.9033
        20        2.0000           -0.4670836             -12.7100
        21        2.0000           -0.4609945             -12.5443
        22        2.0000           -0.4564966             -12.4219
        23        2.0000           -0.4434369             -12.0665
        24        2.0000           -0.4382028             -11.9241
        25        2.0000           -0.4239205             -11.5355
        26        2.0000           -0.4163556             -11.3296
        27        2.0000           -0.4071238             -11.0784
        28        2.0000           -0.4029338             -10.9644
        29        2.0000           -0.3995032             -10.8710
        30        2.0000           -0.3641225              -9.9083 (HOMO)
        31                         -0.2300677              -6.2605 (LUMO)
        32                         -0.2215968              -6.0300
        33                         -0.1545287              -4.2049
        34                         -0.1502104              -4.0874
        35                         -0.0931204              -2.5339
        36                          0.0036078               0.0982
        37                          0.0492356               1.3398
        38                          0.0993024               2.7022
        39                          0.1123799               3.0580
        40                          0.1210793               3.2947
        41                          0.1307322               3.5574
       ...                                ...                  ...
        64                          0.7774499              21.1555
      -------------------------------------------------------------
                  HL-Gap            0.1340548 Eh            3.6478 eV

     #   Z          covCN         q      C6AA      α(0)
     1  15 P        3.030    -0.114   165.432    23.106
     2   6 C        3.748    -0.045    21.454     6.606
     3   1 H        0.926     0.040     2.447     2.446
     4   1 H        0.925     0.046     2.367     2.406
     5   6 C        3.821    -0.098    22.342     6.726
     6   1 H        0.925     0.041     2.434     2.440
     7   1 H        0.925     0.039     2.464     2.455
     8   1 H        0.925     0.031     2.569     2.507
     9   6 C        2.915     0.012    27.744     8.637
    10   6 C        3.033    -0.030    28.717     8.790
    11   6 C        2.955    -0.033    28.819     8.805
    12   6 C        2.918    -0.030    28.748     8.792
    13   6 C        2.920    -0.032    28.788     8.799
    14   6 C        2.920    -0.031    28.774     8.796
    15   1 H        0.925     0.035     2.523     2.484
    16   1 H        0.926     0.036     2.506     2.476
    17   1 H        0.926     0.029     2.606     2.524
    18   1 H        0.926     0.027     2.629     2.535
    19   1 H        0.926     0.028     2.617     2.530
    20   6 C        3.747    -0.046    21.461     6.608
    21   1 H        0.926     0.040     2.450     2.448
    22   1 H        0.926     0.042     2.421     2.433
    23   6 C        3.780    -0.096    22.347     6.734
    24   1 H        0.925     0.037     2.486     2.466
    25   1 H        0.925     0.038     2.471     2.458
    26   1 H        0.925     0.033     2.540     2.492

Wiberg/Mayer (AO) data.
largest (>0.10) Wiberg bond orders for each atom

     #   Z sym  total        # sym  WBO       # sym  WBO       # sym  WBO
 ---------------------------------------------------------------------------
     1  15 P    3.375 --     2 C    1.030     9 C    1.017    20 C    1.012
     2   6 C    3.995 --     1 P    1.030     5 C    1.016     3 H    0.956
                             4 H    0.949
     3   1 H    0.998 --     2 C    0.956
     4   1 H    0.998 --     2 C    0.949
     5   6 C    3.997 --     2 C    1.016     6 H    0.985     8 H    0.985
                             7 H    0.983
     6   1 H    0.998 --     5 C    0.985
     7   1 H    0.998 --     5 C    0.983
     8   1 H    0.999 --     5 C    0.985
     9   6 C    3.982 --    11 C    1.404    10 C    1.390     1 P    1.017
                            14 C    0.106
    10   6 C    3.992 --    12 C    1.457     9 C    1.390    15 H    0.962
                            13 C    0.110
    11   6 C    3.993 --    13 C    1.439     9 C    1.404    16 H    0.961
                            12 C    0.107
    12   6 C    3.991 --    10 C    1.457    14 C    1.428    17 H    0.970
                            11 C    0.107
    13   6 C    3.993 --    14 C    1.442    11 C    1.439    18 H    0.970
                            10 C    0.110
    14   6 C    3.992 --    13 C    1.442    12 C    1.428    19 H    0.971
                             9 C    0.106
    15   1 H    0.999 --    10 C    0.962
    16   1 H    0.999 --    11 C    0.961
    17   1 H    0.999 --    12 C    0.970
    18   1 H    0.999 --    13 C    0.970
    19   1 H    0.998 --    14 C    0.971
    20   6 C    3.994 --     1 P    1.012    23 C    1.012    21 H    0.957
                            22 H    0.956
    21   1 H    0.998 --    20 C    0.957
    22   1 H    0.998 --    20 C    0.956
    23   6 C    3.997 --    20 C    1.012    24 H    0.985    25 H    0.983
                            26 H    0.983
    24   1 H    0.999 --    23 C    0.985
    25   1 H    0.999 --    23 C    0.983
    26   1 H    0.999 --    23 C    0.983
 ---------------------------------------------------------------------------

molecular dipole:
                 x           y           z       tot (Debye)
 q only:       -0.065       0.080       0.302
   full:       -0.346       0.171       0.529       1.663

 projected vibrational frequencies (cm⁻¹)
eigval :       -0.00    -0.00    -0.00     0.00     0.00     0.00
eigval :       24.77    64.73    85.47   113.47   161.57   170.53
eigval :      201.30   222.76   248.47   262.54   314.66   361.33
eigval :      366.35   392.61   473.19   585.80   648.65   659.34
eigval :      679.17   690.40   736.53   760.67   769.52   872.82
eigval :      896.05   925.81   931.61   967.51   982.26   995.16
eigval :     1013.55  1017.29  1063.80  1077.76  1084.86  1115.14
eigval :     1123.34  1181.73  1203.80  1222.75  1230.86  1250.26
eigval :     1268.47  1280.28  1317.26  1407.84  1412.78  1421.41
eigval :     1448.94  1451.33  1461.83  1496.50  1499.44  1505.03
eigval :     1506.61  1578.18  1589.23  2936.17  2941.20  2951.24
eigval :     2955.38  3011.66  3012.12  3023.50  3025.18  3034.24
eigval :     3041.08  3054.46  3067.44  3074.43  3086.80  3093.53

   temp. (K)  partition function   enthalpy   heat capacity  entropy
                                   cal/mol     cal/K/mol   cal/K/mol   J/K/mol
 298.15  VIB  0.143E+05             6118.854     39.485     37.319
         ROT  0.115E+07              888.752      2.981     30.722
         INT  0.165E+11             7007.606     42.466     68.041
         TR   0.207E+28             1481.254      4.968     41.214
         TOT                        8488.8602    47.4337   109.2542   457.1196

       T/K    H(0)-H(T)+PV         H(T)/Eh          T*S/Eh         G(T)/Eh
   ------------------------------------------------------------------------
    298.15    0.135279E-01    0.232468E+00    0.519102E-01    0.180558E+00
   ------------------------------------------------------------------------

         :::::::::::::::::::::::::::::::::::::::::::::::::::::
         ::                  THERMODYNAMIC                  ::
         :::::::::::::::::::::::::::::::::::::::::::::::::::::
         :: total free energy         -31.375107488935 Eh   ::
         ::.................................................::
         :: total energy              -31.555665620059 Eh   ::
         :: zero point energy           0.218940467965 Eh   ::
         :: G(RRHO) w/o ZPVE           -0.038382336841 Eh   ::
         :: G(RRHO) contrib.            0.180558131123 Eh   ::
         :::::::::::::::::::::::::::::::::::::::::::::::::::::

           -------------------------------------------------
          | TOTAL ENERGY              -31.555665620059 Eh   |
          | TOTAL ENTHALPY            -31.323197292207 Eh   |
          | TOTAL FREE ENERGY         -31.375107488935 Eh   |
          | GRADIENT NORM               0.000042917772 Eh/α |
          | HOMO-LUMO GAP               3.647817907509 eV   |
           -------------------------------------------------

 * finished run on 2025/07/14 at 11:26:20.908
