   * xtb version 6.7.0 (08769fc) compiled by 'albert@albert-system' on 2024-03-04

   ID    Z sym.   atoms
    1   15 P      1
    2    6 C      2, 5, 9-14, 20, 23
    3    1 H      3, 4, 6-8, 15-19, 21, 22, 24-26

          program call               : /home/minenky/programs/xtb/xtb-dist/bin/xtb m1_00_PEt2Ph-PBE0-D3-TZ-uniMM_13.xyz --charge 0 --T --ohess extreme --cycles 5000 --acc 0.01 --iterations 5000
          :  Hamiltonian                  GFN2-xTB          :
 * total energy  :   -31.5520690 Eh     change       -0.7815970E-13 Eh
 * total energy  :   -31.5545658 Eh     change       -0.2496787E-02 Eh
 * total energy  :   -31.5551968 Eh     change       -0.6309986E-03 Eh
 * total energy  :   -31.5554475 Eh     change       -0.2507460E-03 Eh
 * total energy  :   -31.5555770 Eh     change       -0.1294973E-03 Eh
 * total energy  :   -31.5556730 Eh     change       -0.9600621E-04 Eh
 * total energy  :   -31.5557294 Eh     change       -0.5638769E-04 Eh
 * total energy  :   -31.5557550 Eh     change       -0.2561722E-04 Eh
 * total energy  :   -31.5557740 Eh     change       -0.1898385E-04 Eh
 * total energy  :   -31.5557996 Eh     change       -0.2555019E-04 Eh
 * total energy  :   -31.5559217 Eh     change       -0.3637094E-06 Eh
 * total energy  :   -31.5559220 Eh     change       -0.3497297E-06 Eh
 * total energy  :   -31.5559224 Eh     change       -0.3315286E-06 Eh
 * total energy  :   -31.5559227 Eh     change       -0.3143148E-06 Eh
 * total energy  :   -31.5559230 Eh     change       -0.2947579E-06 Eh
 * total energy  :   -31.5559233 Eh     change       -0.2795970E-06 Eh
 * total energy  :   -31.5559235 Eh     change       -0.2624262E-06 Eh
 * total energy  :   -31.5559238 Eh     change       -0.2505521E-06 Eh
 * total energy  :   -31.5559238 Eh     change       -0.2154060E-08 Eh
   *** GEOMETRY OPTIMIZATION CONVERGED AFTER 122 ITERATIONS ***

 final structure:
================
26
 xtb: 6.7.0 (08769fc)
P            1.55467699164296       -0.25108432596189       -3.01223386679589
C            3.33170124935349       -0.80859121160276       -3.11648429584816
H            3.91542994115169       -0.12649441126345       -3.73923193994961
H            3.72600042878490       -0.76774612872883       -2.09685549504565
C            3.43676501687766       -2.23881335869846       -3.63011870358555
H            3.12447924709308       -2.30691067097198       -4.66977621680896
H            2.80557541715339       -2.90108163910256       -3.04031443671042
H            4.46461506152217       -2.59204101667975       -3.56099989230292
C            1.77458435359336        1.55118779758955       -2.74745145892878
C            0.66296521761612        2.36433337884252       -2.96159304063924
C            2.93690486298669        2.13114939290280       -2.25230594194119
C            0.72601558263749        3.72573924690915       -2.73791314775080
C            2.99802363570583        3.49511084095977       -2.02352950189064
C            1.89902827846675        4.29784966038687       -2.27278330489570
H           -0.26033631553321        1.91998189275164       -3.30733434404339
H            3.80427771607018        1.52490318166870       -2.04012059240670
H           -0.14206442504310        4.34283113953107       -2.92080228290667
H            3.91172295863807        3.93230142258946       -1.64636887832544
H            1.95219031167677        5.36222027060811       -2.09674104644808
C            1.09875722866111       -0.21307775210400       -4.82475982940049
H            1.02010528320031       -1.25532267307027       -5.14616412212367
H            0.09016842132477        0.20648307767312       -4.87150993112766
C            2.02527136755325        0.56435880721387       -5.74899829993449
H            3.00004563629677        0.08893613258054       -5.82521990576107
H            2.16316146688473        1.58259740401358       -5.38916417200537
H            1.59568106568470        0.60985854196319       -6.74883735242334

          :  Hamiltonian                  GFN2-xTB          :
         :: gradient norm              0.000037857170 Eh/a0 ::
         :: HOMO-LUMO gap              3.634300427959 eV    ::
         :: SCC energy               -32.077065913194 Eh    ::
         :: -> dispersion             -0.024372240057 Eh    ::
         :: repulsion energy           0.521142146718 Eh    ::

    * Orbital Energies and Occupations

         #    Occupation            Energy/Eh            Energy/eV
      -------------------------------------------------------------
         1        2.0000           -0.6587632             -17.9259
       ...           ...                  ...                  ...
        18        2.0000           -0.4769627             -12.9788
        19        2.0000           -0.4739097             -12.8957
        20        2.0000           -0.4691091             -12.7651
        21        2.0000           -0.4616943             -12.5633
        22        2.0000           -0.4526820             -12.3181
        23        2.0000           -0.4452341             -12.1154
        24        2.0000           -0.4394284             -11.9575
        25        2.0000           -0.4248121             -11.5597
        26        2.0000           -0.4141590             -11.2698
        27        2.0000           -0.4080522             -11.1037
        28        2.0000           -0.4026954             -10.9579
        29        2.0000           -0.4007845             -10.9059
        30        2.0000           -0.3633714              -9.8878 (HOMO)
        31                         -0.2298133              -6.2535 (LUMO)
        32                         -0.2214796              -6.0268
        33                         -0.1549440              -4.2162
        34                         -0.1495593              -4.0697
        35                         -0.0932687              -2.5380
        36                          0.0121689               0.3311
        37                          0.0427797               1.1641
        38                          0.1036481               2.8204
        39                          0.1126651               3.0658
        40                          0.1169546               3.1825
        41                          0.1314341               3.5765
       ...                                ...                  ...
        64                          0.7992730              21.7493
      -------------------------------------------------------------
                  HL-Gap            0.1335581 Eh            3.6343 eV

     #   Z          covCN         q      C6AA      α(0)
     1  15 P        3.014    -0.112   165.315    23.098
     2   6 C        3.748    -0.045    21.450     6.606
     3   1 H        0.925     0.047     2.363     2.404
     4   1 H        0.926     0.040     2.443     2.444
     5   6 C        3.816    -0.097    22.334     6.726
     6   1 H        0.925     0.037     2.487     2.466
     7   1 H        0.925     0.041     2.432     2.439
     8   1 H        0.925     0.032     2.555     2.499
     9   6 C        2.915     0.010    27.792     8.645
    10   6 C        3.015    -0.030    28.734     8.793
    11   6 C        2.964    -0.034    28.833     8.808
    12   6 C        2.918    -0.030    28.757     8.794
    13   6 C        2.919    -0.031    28.765     8.795
    14   6 C        2.920    -0.031    28.779     8.797
    15   1 H        0.925     0.034     2.535     2.490
    16   1 H        0.926     0.033     2.550     2.497
    17   1 H        0.926     0.029     2.606     2.524
    18   1 H        0.926     0.028     2.617     2.530
    19   1 H        0.926     0.028     2.612     2.527
    20   6 C        3.748    -0.044    21.429     6.603
    21   1 H        0.926     0.041     2.436     2.441
    22   1 H        0.926     0.042     2.427     2.436
    23   6 C        3.780    -0.094    22.321     6.731
    24   1 H        0.925     0.038     2.478     2.462
    25   1 H        0.925     0.038     2.481     2.463
    26   1 H        0.925     0.032     2.561     2.503

Wiberg/Mayer (AO) data.
largest (>0.10) Wiberg bond orders for each atom

     #   Z sym  total        # sym  WBO       # sym  WBO       # sym  WBO
 ---------------------------------------------------------------------------
     1  15 P    3.379 --     2 C    1.026     9 C    1.020    20 C    1.015
     2   6 C    3.995 --     1 P    1.026     5 C    1.015     4 H    0.956
                             3 H    0.951
     3   1 H    0.998 --     2 C    0.951
     4   1 H    0.998 --     2 C    0.956
     5   6 C    3.996 --     2 C    1.015     8 H    0.984     7 H    0.984
                             6 H    0.984
     6   1 H    0.999 --     5 C    0.984
     7   1 H    0.998 --     5 C    0.984
     8   1 H    0.999 --     5 C    0.984
     9   6 C    3.981 --    11 C    1.401    10 C    1.389     1 P    1.020
                            14 C    0.105
    10   6 C    3.992 --    12 C    1.456     9 C    1.389    15 H    0.962
                            13 C    0.109
    11   6 C    3.993 --    13 C    1.441     9 C    1.401    16 H    0.963
                            12 C    0.107
    12   6 C    3.992 --    10 C    1.456    14 C    1.428    17 H    0.970
                            11 C    0.107
    13   6 C    3.993 --    11 C    1.441    14 C    1.441    18 H    0.970
                            10 C    0.109
    14   6 C    3.991 --    13 C    1.441    12 C    1.428    19 H    0.971
                             9 C    0.105
    15   1 H    0.999 --    10 C    0.962
    16   1 H    0.999 --    11 C    0.963
    17   1 H    0.999 --    12 C    0.970
    18   1 H    0.999 --    13 C    0.970
    19   1 H    0.999 --    14 C    0.971
    20   6 C    3.994 --     1 P    1.015    23 C    1.012    21 H    0.956
                            22 H    0.954
    21   1 H    0.998 --    20 C    0.956
    22   1 H    0.998 --    20 C    0.954
    23   6 C    3.997 --    20 C    1.012    24 H    0.984    26 H    0.983
                            25 H    0.983
    24   1 H    0.999 --    23 C    0.984
    25   1 H    0.999 --    23 C    0.983
    26   1 H    0.999 --    23 C    0.983
 ---------------------------------------------------------------------------

molecular dipole:
                 x           y           z       tot (Debye)
 q only:        0.196      -0.059      -0.287
   full:        0.415       0.143      -0.496       1.684

 projected vibrational frequencies (cm⁻¹)
eigval :       -0.00    -0.00    -0.00    -0.00     0.00     0.00
eigval :       24.97    72.20    84.26   127.22   130.39   200.63
eigval :      204.66   228.75   262.46   277.59   283.55   358.23
eigval :      362.91   404.33   473.56   585.98   638.03   656.84
eigval :      683.19   704.30   729.79   746.44   791.03   870.67
eigval :      894.03   924.90   931.03   968.48   974.82   998.73
eigval :     1012.89  1021.94  1065.68  1073.33  1086.16  1115.59
eigval :     1123.69  1181.98  1203.67  1225.79  1227.56  1251.96
eigval :     1266.75  1282.76  1316.82  1408.76  1410.76  1421.70
eigval :     1451.15  1456.47  1461.99  1497.21  1501.22  1505.26
eigval :     1508.04  1577.24  1588.95  2938.67  2942.16  2948.79
eigval :     2961.36  3011.07  3013.12  3024.68  3024.80  3035.13
eigval :     3039.49  3061.11  3068.53  3074.94  3087.11  3093.93

   temp. (K)  partition function   enthalpy   heat capacity  entropy
                                   cal/mol     cal/K/mol   cal/K/mol   J/K/mol
 298.15  VIB  0.122E+05             6086.380     39.517     36.996
         ROT  0.113E+07              888.752      2.981     30.681
         INT  0.138E+11             6975.132     42.498     67.677
         TR   0.207E+28             1481.254      4.968     41.214
         TOT                        8456.3862    47.4660   108.8909   455.5996

       T/K    H(0)-H(T)+PV         H(T)/Eh          T*S/Eh         G(T)/Eh
   ------------------------------------------------------------------------
    298.15    0.134761E-01    0.232554E+00    0.517376E-01    0.180817E+00
   ------------------------------------------------------------------------

         :::::::::::::::::::::::::::::::::::::::::::::::::::::
         ::                  THERMODYNAMIC                  ::
         :::::::::::::::::::::::::::::::::::::::::::::::::::::
         :: total free energy         -31.375107080188 Eh   ::
         ::.................................................::
         :: total energy              -31.555923766476 Eh   ::
         :: zero point energy           0.219078163257 Eh   ::
         :: G(RRHO) w/o ZPVE           -0.038261476969 Eh   ::
         :: G(RRHO) contrib.            0.180816686287 Eh   ::
         :::::::::::::::::::::::::::::::::::::::::::::::::::::

           -------------------------------------------------
          | TOTAL ENERGY              -31.555923766476 Eh   |
          | TOTAL ENTHALPY            -31.323369494048 Eh   |
          | TOTAL FREE ENERGY         -31.375107080188 Eh   |
          | GRADIENT NORM               0.000037857078 Eh/α |
          | HOMO-LUMO GAP               3.634300474248 eV   |
           -------------------------------------------------

 * finished run on 2025/07/14 at 11:26:59.084
