   * xtb version 6.7.0 (08769fc) compiled by 'albert@albert-system' on 2024-03-04

   ID    Z sym.   atoms
    1   15 P      1
    2    6 C      2, 5, 9-14, 20, 23
    3    1 H      3, 4, 6-8, 15-19, 21, 22, 24-26

          program call               : /home/minenky/programs/xtb/xtb-dist/bin/xtb m1_00_PEt2Ph-PBE0-D3-TZ-uniMM_17.xyz --charge 0 --T --ohess extreme --cycles 5000 --acc 0.01 --iterations 5000
          :  Hamiltonian                  GFN2-xTB          :
 * total energy  :   -31.5473036 Eh     change       -0.7105427E-13 Eh
 * total energy  :   -31.5536408 Eh     change       -0.6337149E-02 Eh
 * total energy  :   -31.5548815 Eh     change       -0.1240724E-02 Eh
 * total energy  :   -31.5556248 Eh     change       -0.7433414E-03 Eh
 * total energy  :   -31.5557990 Eh     change       -0.1741723E-03 Eh
 * total energy  :   -31.5558817 Eh     change       -0.8266312E-04 Eh
 * total energy  :   -31.5559344 Eh     change       -0.5274952E-04 Eh
 * total energy  :   -31.5559849 Eh     change       -0.5052456E-04 Eh
 * total energy  :   -31.5560224 Eh     change       -0.3743637E-04 Eh
 * total energy  :   -31.5560426 Eh     change       -0.2021207E-04 Eh
 * total energy  :   -31.5561084 Eh     change       -0.2040446E-06 Eh
 * total energy  :   -31.5561087 Eh     change       -0.3230433E-06 Eh
 * total energy  :   -31.5561091 Eh     change       -0.4231596E-06 Eh
 * total energy  :   -31.5561095 Eh     change       -0.3771935E-06 Eh
 * total energy  :   -31.5561098 Eh     change       -0.2373044E-06 Eh
 * total energy  :   -31.5561099 Eh     change       -0.1301984E-06 Eh
 * total energy  :   -31.5561100 Eh     change       -0.9624291E-07 Eh
 * total energy  :   -31.5561101 Eh     change       -0.7969736E-07 Eh
 * total energy  :   -31.5561101 Eh     change       -0.4129475E-07 Eh
   *** GEOMETRY OPTIMIZATION CONVERGED AFTER 39 ITERATIONS ***

 final structure:
================
26
 xtb: 6.7.0 (08769fc)
P            1.57699240601784       -0.21135401334248       -2.88217692380210
C            2.57847100418757        0.62085236213074       -4.22209521181143
H            3.37544758240251        1.22344555327833       -3.77803917818930
H            3.04511744962168       -0.18262464242751       -4.79972938297998
C            1.70624213717826        1.47213349094876       -5.13481162614736
H            1.26808396177934        2.30420456286997       -4.58773260792628
H            0.89789066291478        0.87491011333063       -5.55203450169033
H            2.29543982156798        1.87622830030138       -5.95655248081865
C            2.97447541695995       -1.01935978779549       -1.99561614223356
C            4.07531132363297       -0.34191850503770       -1.48382195598877
C            2.90320460597871       -2.39943946394445       -1.84171310231438
C            5.08090868403821       -1.03334285887958       -0.83384044869277
C            3.90978781345993       -3.09240030016464       -1.19343832220882
C            5.00173889105659       -2.40863050295075       -0.68744761354898
H            4.15450128676953        0.73116403948323       -1.58510681632100
H            2.04494853748387       -2.92557878862510       -2.23652215583588
H            5.93183438112638       -0.49676231454650       -0.43820626442908
H            3.84232227758041       -4.16489510823015       -1.08080726347655
H            5.78992622680137       -2.94416560391145       -0.17849619739125
C            1.30187998676694        1.26056548954257       -1.76687741999437
H            2.20704501133847        1.87028953822486       -1.70166972905150
H            0.51984241746619        1.86607457867015       -2.23380785363697
C            0.84748518835029        0.81876578627640       -0.38266608725612
H            1.62148574185590        0.22691467075040        0.10350496963603
H           -0.05027395451050        0.20780286469515       -0.45552474552658
H            0.62763813817483        1.68206953935318        0.24349606163566

          :  Hamiltonian                  GFN2-xTB          :
         :: gradient norm              0.000015740598 Eh/a0 ::
         :: HOMO-LUMO gap              3.638385237921 eV    ::
         :: SCC energy               -32.076728415514 Eh    ::
         :: -> dispersion             -0.023683415317 Eh    ::
         :: repulsion energy           0.520618313476 Eh    ::

    * Orbital Energies and Occupations

         #    Occupation            Energy/Eh            Energy/eV
      -------------------------------------------------------------
         1        2.0000           -0.6578558             -17.9012
       ...           ...                  ...                  ...
        18        2.0000           -0.4774322             -12.9916
        19        2.0000           -0.4745183             -12.9123
        20        2.0000           -0.4629599             -12.5978
        21        2.0000           -0.4620702             -12.5736
        22        2.0000           -0.4534617             -12.3393
        23        2.0000           -0.4449059             -12.1065
        24        2.0000           -0.4376342             -11.9086
        25        2.0000           -0.4232385             -11.5169
        26        2.0000           -0.4184203             -11.3858
        27        2.0000           -0.4046012             -11.0098
        28        2.0000           -0.4044176             -11.0048
        29        2.0000           -0.3968081             -10.7977
        30        2.0000           -0.3669804              -9.9860 (HOMO)
        31                         -0.2332722              -6.3477 (LUMO)
        32                         -0.2229798              -6.0676
        33                         -0.1564121              -4.2562
        34                         -0.1498334              -4.0772
        35                         -0.0930214              -2.5312
        36                          0.0047367               0.1289
        37                          0.0552968               1.5047
        38                          0.0890138               2.4222
        39                          0.0954096               2.5962
        40                          0.1356355               3.6908
        41                          0.1378058               3.7499
       ...                                ...                  ...
        64                          0.7864919              21.4015
      -------------------------------------------------------------
                  HL-Gap            0.1337082 Eh            3.6384 eV

     #   Z          covCN         q      C6AA      α(0)
     1  15 P        3.046    -0.116   165.504    23.111
     2   6 C        3.748    -0.046    21.472     6.609
     3   1 H        0.925     0.043     2.413     2.429
     4   1 H        0.926     0.038     2.469     2.457
     5   6 C        3.812    -0.098    22.355     6.730
     6   1 H        0.925     0.037     2.493     2.469
     7   1 H        0.925     0.042     2.423     2.434
     8   1 H        0.925     0.033     2.538     2.491
     9   6 C        2.916     0.008    27.843     8.653
    10   6 C        2.960    -0.028    28.705     8.788
    11   6 C        3.016    -0.030    28.736     8.793
    12   6 C        2.919    -0.031    28.780     8.797
    13   6 C        2.918    -0.030    28.741     8.791
    14   6 C        2.920    -0.029    28.731     8.790
    15   1 H        0.926     0.032     2.558     2.501
    16   1 H        0.925     0.040     2.454     2.450
    17   1 H        0.926     0.028     2.612     2.527
    18   1 H        0.926     0.030     2.580     2.512
    19   1 H        0.926     0.029     2.596     2.519
    20   6 C        3.748    -0.045    21.446     6.605
    21   1 H        0.925     0.042     2.426     2.436
    22   1 H        0.926     0.039     2.464     2.455
    23   6 C        3.820    -0.096    22.314     6.723
    24   1 H        0.925     0.036     2.510     2.477
    25   1 H        0.925     0.041     2.435     2.440
    26   1 H        0.925     0.032     2.556     2.500

Wiberg/Mayer (AO) data.
largest (>0.10) Wiberg bond orders for each atom

     #   Z sym  total        # sym  WBO       # sym  WBO       # sym  WBO
 ---------------------------------------------------------------------------
     1  15 P    3.345 --    20 C    1.027     2 C    1.022     9 C    1.006
     2   6 C    3.995 --     1 P    1.022     5 C    1.016     4 H    0.959
                             3 H    0.951
     3   1 H    0.998 --     2 C    0.951
     4   1 H    0.998 --     2 C    0.959
     5   6 C    3.996 --     2 C    1.016     6 H    0.985     7 H    0.985
                             8 H    0.984
     6   1 H    0.999 --     5 C    0.985
     7   1 H    0.998 --     5 C    0.985
     8   1 H    0.998 --     5 C    0.984
     9   6 C    3.983 --    11 C    1.408    10 C    1.400     1 P    1.006
                            14 C    0.108
    10   6 C    3.992 --    12 C    1.450     9 C    1.400    15 H    0.961
                            13 C    0.111
    11   6 C    3.991 --    13 C    1.443     9 C    1.408    16 H    0.964
                            12 C    0.108
    12   6 C    3.993 --    10 C    1.450    14 C    1.432    17 H    0.970
                            11 C    0.108
    13   6 C    3.992 --    11 C    1.443    14 C    1.441    18 H    0.970
                            10 C    0.111
    14   6 C    3.989 --    13 C    1.441    12 C    1.432    19 H    0.971
                             9 C    0.108
    15   1 H    0.999 --    10 C    0.961
    16   1 H    0.998 --    11 C    0.964
    17   1 H    0.999 --    12 C    0.970
    18   1 H    0.999 --    13 C    0.970
    19   1 H    0.998 --    14 C    0.971
    20   6 C    3.993 --     1 P    1.027    23 C    1.016    22 H    0.957
                            21 H    0.950
    21   1 H    0.998 --    20 C    0.950
    22   1 H    0.998 --    20 C    0.957
    23   6 C    3.997 --    20 C    1.016    26 H    0.985    25 H    0.984
                            24 H    0.984
    24   1 H    0.999 --    23 C    0.984
    25   1 H    0.998 --    23 C    0.984
    26   1 H    0.999 --    23 C    0.985
 ---------------------------------------------------------------------------

molecular dipole:
                 x           y           z       tot (Debye)
 q only:        0.128       0.220       0.021
   full:        0.460       0.432       0.131       1.639

 projected vibrational frequencies (cm⁻¹)
eigval :       -0.00    -0.00     0.00     0.00     0.00     0.00
eigval :       21.98    52.50    71.76    94.94   142.00   166.95
eigval :      203.65   215.63   224.47   265.98   312.73   328.99
eigval :      363.36   425.99   450.38   586.08   655.52   660.45
eigval :      686.34   701.66   739.12   754.45   777.90   874.82
eigval :      898.97   926.65   932.75   968.77   974.90   997.51
eigval :     1013.14  1016.93  1071.35  1076.71  1083.11  1117.49
eigval :     1121.33  1181.64  1198.90  1220.63  1225.84  1250.28
eigval :     1255.45  1278.24  1315.56  1409.28  1411.29  1423.37
eigval :     1445.68  1450.52  1458.69  1497.32  1498.57  1501.92
eigval :     1502.31  1579.84  1589.68  2929.71  2935.28  2946.99
eigval :     2950.13  3013.42  3014.12  3020.07  3026.73  3029.43
eigval :     3033.62  3063.22  3064.01  3071.90  3077.47  3087.89

   temp. (K)  partition function   enthalpy   heat capacity  entropy
                                   cal/mol     cal/K/mol   cal/K/mol   J/K/mol
 298.15  VIB  0.306E+05             6236.377     39.249     38.654
         ROT  0.121E+07              888.752      2.981     30.822
         INT  0.372E+11             7125.129     42.230     69.476
         TR   0.207E+28             1481.254      4.968     41.214
         TOT                        8606.3834    47.1982   110.6900   463.1269

       T/K    H(0)-H(T)+PV         H(T)/Eh          T*S/Eh         G(T)/Eh
   ------------------------------------------------------------------------
    298.15    0.137151E-01    0.232274E+00    0.525924E-01    0.179682E+00
   ------------------------------------------------------------------------

         :::::::::::::::::::::::::::::::::::::::::::::::::::::
         ::                  THERMODYNAMIC                  ::
         :::::::::::::::::::::::::::::::::::::::::::::::::::::
         :: total free energy         -31.376428568075 Eh   ::
         ::.................................................::
         :: total energy              -31.556110102038 Eh   ::
         :: zero point energy           0.218558770947 Eh   ::
         :: G(RRHO) w/o ZPVE           -0.038877236984 Eh   ::
         :: G(RRHO) contrib.            0.179681533963 Eh   ::
         :::::::::::::::::::::::::::::::::::::::::::::::::::::

           -------------------------------------------------
          | TOTAL ENERGY              -31.556110102038 Eh   |
          | TOTAL ENTHALPY            -31.323836186216 Eh   |
          | TOTAL FREE ENERGY         -31.376428568075 Eh   |
          | GRADIENT NORM               0.000015739447 Eh/α |
          | HOMO-LUMO GAP               3.638385199394 eV   |
           -------------------------------------------------

 * finished run on 2025/07/14 at 11:27:29.653
