   * xtb version 6.7.0 (08769fc) compiled by 'albert@albert-system' on 2024-03-04

   ID    Z sym.   atoms
    1   15 P      1
    2    6 C      2, 5, 9-14, 20, 23
    3    1 H      3, 4, 6-8, 15-19, 21, 22, 24-26

          program call               : /home/minenky/programs/xtb/xtb-dist/bin/xtb m1_00_PEt2Ph-PBE0-D3-TZ-uniMM_67.xyz --charge 0 --T --ohess extreme --cycles 5000 --acc 0.01 --iterations 5000
          :  Hamiltonian                  GFN2-xTB          :
 * total energy  :   -31.5315121 Eh     change       -0.3197442E-12 Eh
 * total energy  :   -31.5438179 Eh     change       -0.1230574E-01 Eh
 * total energy  :   -31.5473585 Eh     change       -0.3540654E-02 Eh
 * total energy  :   -31.5490130 Eh     change       -0.1654449E-02 Eh
 * total energy  :   -31.5497037 Eh     change       -0.6907330E-03 Eh
 * total energy  :   -31.5500135 Eh     change       -0.3098617E-03 Eh
 * total energy  :   -31.5502282 Eh     change       -0.2146038E-03 Eh
 * total energy  :   -31.5504318 Eh     change       -0.2036347E-03 Eh
 * total energy  :   -31.5505771 Eh     change       -0.1453302E-03 Eh
 * total energy  :   -31.5506581 Eh     change       -0.8100908E-04 Eh
 * total energy  :   -31.5559279 Eh     change       -0.1474610E-06 Eh
 * total energy  :   -31.5559280 Eh     change       -0.1417555E-06 Eh
 * total energy  :   -31.5559282 Eh     change       -0.1360881E-06 Eh
 * total energy  :   -31.5559283 Eh     change       -0.1351329E-06 Eh
 * total energy  :   -31.5559284 Eh     change       -0.1351579E-06 Eh
 * total energy  :   -31.5559286 Eh     change       -0.1306668E-06 Eh
 * total energy  :   -31.5559287 Eh     change       -0.1275803E-06 Eh
 * total energy  :   -31.5559288 Eh     change       -0.1157536E-06 Eh
 * total energy  :   -31.5559288 Eh     change       -0.7493384E-09 Eh
   *** GEOMETRY OPTIMIZATION CONVERGED AFTER 122 ITERATIONS ***

 final structure:
================
26
 xtb: 6.7.0 (08769fc)
P            1.88799966889409        0.22563345031548       -2.71273885270620
C            1.73135177524251       -1.56157885755282       -3.23931530615255
H            1.01026512112593       -1.56704768578816       -4.06131875671536
H            2.69715516404132       -1.84727502773362       -3.66505657860815
C            1.30173390092161       -2.55612994990464       -2.16999876206436
H            0.37977570118584       -2.23179677817952       -1.69015266685552
H            2.06708222340422       -2.67395006967524       -1.40683546198153
H            1.12732016608013       -3.53144919745176       -2.62229363752181
C            0.23519284802600        0.41631268833353       -1.93862558994963
C            0.01900801116895        0.75187727582046       -0.60739584506815
C           -0.86578161863828        0.30299055178099       -2.78586154334289
C           -1.26865959630624        0.92409918904475       -0.12861042792542
C           -2.15011106763250        0.47088585297450       -2.30693848969123
C           -2.35604262135337        0.77686458884360       -0.97132564222020
H            0.85086091908674        0.88197003575236        0.06784238822697
H           -0.70660794542144        0.08161977580501       -3.83259494808721
H           -1.42172810204121        1.17616084887157        0.91124385857319
H           -2.99296601651158        0.36920145515638       -2.97553528489755
H           -3.35890147028681        0.90885558051506       -0.59241126142313
C            2.97219699005548        0.04928439266578       -1.20606515529951
H            3.01959884944426        1.04004826078707       -0.74447392849913
H            2.53060524231864       -0.64543935248773       -0.48786226711252
C            4.38027507319036       -0.38879350755219       -1.58847439986602
H            4.79237152696514        0.27675960750330       -2.34481551486948
H            4.38102684735702       -1.40043241680792       -1.98825873791073
H            5.03457340968208       -0.36719871103532       -0.71818318803197

          :  Hamiltonian                  GFN2-xTB          :
         :: gradient norm              0.000022262310 Eh/a0 ::
         :: HOMO-LUMO gap              3.637732405247 eV    ::
         :: SCC energy               -32.077067784481 Eh    ::
         :: -> dispersion             -0.024359743332 Eh    ::
         :: repulsion energy           0.521138962904 Eh    ::

    * Orbital Energies and Occupations

         #    Occupation            Energy/Eh            Energy/eV
      -------------------------------------------------------------
         1        2.0000           -0.6587501             -17.9255
       ...           ...                  ...                  ...
        18        2.0000           -0.4770581             -12.9814
        19        2.0000           -0.4740046             -12.8983
        20        2.0000           -0.4690109             -12.7624
        21        2.0000           -0.4616250             -12.5615
        22        2.0000           -0.4527111             -12.3189
        23        2.0000           -0.4451390             -12.1128
        24        2.0000           -0.4393417             -11.9551
        25        2.0000           -0.4246785             -11.5561
        26        2.0000           -0.4143800             -11.2759
        27        2.0000           -0.4078076             -11.0970
        28        2.0000           -0.4028140             -10.9611
        29        2.0000           -0.4006871             -10.9033
        30        2.0000           -0.3635518              -9.8927 (HOMO)
        31                         -0.2298676              -6.2550 (LUMO)
        32                         -0.2215355              -6.0283
        33                         -0.1544413              -4.2026
        34                         -0.1499211              -4.0796
        35                         -0.0933376              -2.5398
        36                          0.0105491               0.2871
        37                          0.0441381               1.2011
        38                          0.1061526               2.8886
        39                          0.1121377               3.0514
        40                          0.1164894               3.1698
        41                          0.1320053               3.5920
       ...                                ...                  ...
        64                          0.7999290              21.7672
      -------------------------------------------------------------
                  HL-Gap            0.1336842 Eh            3.6377 eV

     #   Z          covCN         q      C6AA      α(0)
     1  15 P        3.020    -0.113   165.368    23.102
     2   6 C        3.748    -0.044    21.428     6.602
     3   1 H        0.926     0.042     2.424     2.435
     4   1 H        0.926     0.041     2.438     2.442
     5   6 C        3.780    -0.094    22.320     6.730
     6   1 H        0.925     0.037     2.483     2.464
     7   1 H        0.925     0.038     2.479     2.462
     8   1 H        0.925     0.032     2.560     2.502
     9   6 C        2.915     0.010    27.790     8.645
    10   6 C        2.961    -0.034    28.832     8.807
    11   6 C        3.021    -0.030    28.727     8.792
    12   6 C        2.919    -0.031    28.768     8.795
    13   6 C        2.918    -0.030    28.754     8.793
    14   6 C        2.920    -0.031    28.777     8.797
    15   1 H        0.926     0.033     2.549     2.497
    16   1 H        0.925     0.034     2.532     2.488
    17   1 H        0.926     0.028     2.617     2.530
    18   1 H        0.926     0.029     2.604     2.523
    19   1 H        0.926     0.028     2.611     2.527
    20   6 C        3.748    -0.045    21.450     6.606
    21   1 H        0.926     0.041     2.441     2.443
    22   1 H        0.925     0.047     2.362     2.403
    23   6 C        3.819    -0.097    22.332     6.725
    24   1 H        0.925     0.041     2.431     2.438
    25   1 H        0.925     0.037     2.489     2.467
    26   1 H        0.925     0.032     2.556     2.500

Wiberg/Mayer (AO) data.
largest (>0.10) Wiberg bond orders for each atom

     #   Z sym  total        # sym  WBO       # sym  WBO       # sym  WBO
 ---------------------------------------------------------------------------
     1  15 P    3.378 --    20 C    1.028     9 C    1.019     2 C    1.014
     2   6 C    3.994 --     1 P    1.014     5 C    1.012     4 H    0.956
                             3 H    0.954
     3   1 H    0.998 --     2 C    0.954
     4   1 H    0.998 --     2 C    0.956
     5   6 C    3.997 --     2 C    1.012     7 H    0.984     8 H    0.983
                             6 H    0.983
     6   1 H    0.999 --     5 C    0.983
     7   1 H    0.999 --     5 C    0.984
     8   1 H    0.999 --     5 C    0.983
     9   6 C    3.982 --    10 C    1.402    11 C    1.390     1 P    1.019
                            14 C    0.106
    10   6 C    3.993 --    12 C    1.441     9 C    1.402    15 H    0.963
                            13 C    0.107
    11   6 C    3.992 --    13 C    1.457     9 C    1.390    16 H    0.962
                            12 C    0.110
    12   6 C    3.993 --    14 C    1.441    10 C    1.441    17 H    0.970
                            11 C    0.110
    13   6 C    3.992 --    11 C    1.457    14 C    1.428    18 H    0.970
                            10 C    0.107
    14   6 C    3.991 --    12 C    1.441    13 C    1.428    19 H    0.971
                             9 C    0.106
    15   1 H    0.999 --    10 C    0.963
    16   1 H    0.999 --    11 C    0.962
    17   1 H    0.999 --    12 C    0.970
    18   1 H    0.999 --    13 C    0.970
    19   1 H    0.998 --    14 C    0.971
    20   6 C    3.995 --     1 P    1.028    23 C    1.015    21 H    0.956
                            22 H    0.951
    21   1 H    0.998 --    20 C    0.956
    22   1 H    0.998 --    20 C    0.951
    23   6 C    3.996 --    20 C    1.015    26 H    0.985    24 H    0.984
                            25 H    0.984
    24   1 H    0.998 --    23 C    0.984
    25   1 H    0.999 --    23 C    0.984
    26   1 H    0.999 --    23 C    0.985
 ---------------------------------------------------------------------------

molecular dipole:
                 x           y           z       tot (Debye)
 q only:        0.115      -0.293       0.150
   full:       -0.007      -0.522       0.409       1.686

 projected vibrational frequencies (cm⁻¹)
eigval :       -0.00    -0.00     0.00     0.00     0.00     0.00
eigval :       27.55    69.93    81.05   127.11   129.38   199.75
eigval :      204.17   227.93   261.36   277.13   283.91   356.79
eigval :      363.07   406.64   472.92   585.95   638.41   657.09
eigval :      683.19   704.69   729.36   746.85   791.33   871.16
eigval :      894.50   925.14   931.20   968.61   974.40   998.59
eigval :     1012.39  1021.89  1065.59  1072.88  1085.86  1115.63
eigval :     1123.31  1181.86  1203.28  1225.71  1227.86  1251.09
eigval :     1266.83  1282.25  1316.95  1408.59  1410.69  1421.70
eigval :     1450.97  1455.05  1461.93  1497.34  1501.02  1504.85
eigval :     1508.48  1577.46  1589.04  2938.92  2942.40  2949.42
eigval :     2960.72  3011.26  3013.21  3023.97  3024.74  3034.37
eigval :     3039.02  3058.68  3068.41  3074.73  3087.03  3094.11

   temp. (K)  partition function   enthalpy   heat capacity  entropy
                                   cal/mol     cal/K/mol   cal/K/mol   J/K/mol
 298.15  VIB  0.120E+05             6093.673     39.514     37.079
         ROT  0.113E+07              888.752      2.981     30.681
         INT  0.135E+11             6982.425     42.495     67.760
         TR   0.207E+28             1481.254      4.968     41.214
         TOT                        8463.6794    47.4628   108.9738   455.9463

       T/K    H(0)-H(T)+PV         H(T)/Eh          T*S/Eh         G(T)/Eh
   ------------------------------------------------------------------------
    298.15    0.134877E-01    0.232535E+00    0.517770E-01    0.180758E+00
   ------------------------------------------------------------------------

         :::::::::::::::::::::::::::::::::::::::::::::::::::::
         ::                  THERMODYNAMIC                  ::
         :::::::::::::::::::::::::::::::::::::::::::::::::::::
         :: total free energy         -31.375170721630 Eh   ::
         ::.................................................::
         :: total energy              -31.555928821577 Eh   ::
         :: zero point energy           0.219047327482 Eh   ::
         :: G(RRHO) w/o ZPVE           -0.038289227535 Eh   ::
         :: G(RRHO) contrib.            0.180758099947 Eh   ::
         :::::::::::::::::::::::::::::::::::::::::::::::::::::

           -------------------------------------------------
          | TOTAL ENERGY              -31.555928821577 Eh   |
          | TOTAL ENTHALPY            -31.323393762519 Eh   |
          | TOTAL FREE ENERGY         -31.375170721630 Eh   |
          | GRADIENT NORM               0.000022262424 Eh/α |
          | HOMO-LUMO GAP               3.637732378024 eV   |
           -------------------------------------------------

 * finished run on 2025/07/14 at 11:37:39.127
