   * xtb version 6.7.0 (08769fc) compiled by 'albert@albert-system' on 2024-03-04

   ID    Z sym.   atoms
    1   15 P      1
    2    6 C      2, 5, 9-14, 20, 23
    3    1 H      3, 4, 6-8, 15-19, 21, 22, 24-26

          program call               : /home/minenky/programs/xtb/xtb-dist/bin/xtb m1_00_PEt2Ph-PBE0-D3-TZ-uniMM_74.xyz --charge 0 --T --ohess extreme --cycles 5000 --acc 0.01 --iterations 5000
          :  Hamiltonian                  GFN2-xTB          :
 * total energy  :   -31.5193283 Eh     change       -0.1421085E-13 Eh
 * total energy  :   -31.5347640 Eh     change       -0.1543572E-01 Eh
 * total energy  :   -31.5413992 Eh     change       -0.6635208E-02 Eh
 * total energy  :   -31.5451886 Eh     change       -0.3789313E-02 Eh
 * total energy  :   -31.5471861 Eh     change       -0.1997511E-02 Eh
 * total energy  :   -31.5483024 Eh     change       -0.1116326E-02 Eh
 * total energy  :   -31.5490426 Eh     change       -0.7401806E-03 Eh
 * total energy  :   -31.5496614 Eh     change       -0.6188426E-03 Eh
 * total energy  :   -31.5502762 Eh     change       -0.6148198E-03 Eh
 * total energy  :   -31.5510238 Eh     change       -0.7475920E-03 Eh
 * total energy  :   -31.5556534 Eh     change       -0.1191397E-05 Eh
 * total energy  :   -31.5556548 Eh     change       -0.1384589E-05 Eh
 * total energy  :   -31.5556563 Eh     change       -0.1542731E-05 Eh
 * total energy  :   -31.5556579 Eh     change       -0.1549700E-05 Eh
 * total energy  :   -31.5556592 Eh     change       -0.1395766E-05 Eh
 * total energy  :   -31.5556604 Eh     change       -0.1126559E-05 Eh
 * total energy  :   -31.5556612 Eh     change       -0.8125729E-06 Eh
 * total energy  :   -31.5556618 Eh     change       -0.6479231E-06 Eh
 * total energy  :   -31.5556618 Eh     change       -0.4167976E-08 Eh
   *** GEOMETRY OPTIMIZATION CONVERGED AFTER 68 ITERATIONS ***

 final structure:
================
26
 xtb: 6.7.0 (08769fc)
P            2.11396759650438       -0.19045870891419       -3.31978318186676
C            0.48711476084947       -1.01032721114916       -2.89946882470110
H            0.58677118309742       -1.36251325923881       -1.86882566473154
H           -0.26588494323561       -0.21673067520438       -2.89817086223564
C            0.04665851349870       -2.15948444027160       -3.79571871494299
H            0.82511329947784       -2.91770963176693       -3.86106432526314
H           -0.18531606864730       -1.81152086512545       -4.79915240546656
H           -0.84926505276771       -2.62357911595431       -3.38583315654627
C            3.14791309327707       -1.70666514253051       -3.38779137385527
C            3.69857395223648       -2.26843460359098       -4.53248211956718
C            3.43466613841165       -2.28617741962905       -2.15304111090419
C            4.48920293427901       -3.40185242523381       -4.44407489456291
C            4.21852683261390       -3.41960935903401       -2.06558814414904
C            4.74704303024442       -3.98380727641439       -3.21563706865852
H            3.51745569361034       -1.83403694821247       -5.50376529707944
H            3.03344513310412       -1.83386904556769       -1.25559748667144
H            4.90638090542429       -3.83243382481394       -5.34355567377103
H            4.42447888390928       -3.86167005809968       -1.10129223596638
H            5.36310673777192       -4.86888513073458       -3.15302639236217
C            1.80842006676008        0.18868312913992       -5.11816202364234
H            1.67272668492071       -0.72760519813031       -5.69654481003059
H            0.87245850710631        0.75452821220097       -5.15428991539182
C            2.93766780998210        1.03544383532949       -5.69385072808474
H            3.89140319030936        0.51633422747929       -5.61912292234423
H            3.02369183195702        1.97055675045787       -5.14427042315901
H            2.75034128530419        1.26643118500894       -6.74164724404525

          :  Hamiltonian                  GFN2-xTB          :
         :: gradient norm              0.000048314432 Eh/a0 ::
         :: HOMO-LUMO gap              3.648376409064 eV    ::
         :: SCC energy               -32.076668490624 Eh    ::
         :: -> dispersion             -0.024323098049 Eh    ::
         :: repulsion energy           0.521006650940 Eh    ::

    * Orbital Energies and Occupations

         #    Occupation            Energy/Eh            Energy/eV
      -------------------------------------------------------------
         1        2.0000           -0.6587540             -17.9256
       ...           ...                  ...                  ...
        18        2.0000           -0.4754639             -12.9380
        19        2.0000           -0.4741809             -12.9031
        20        2.0000           -0.4670949             -12.7103
        21        2.0000           -0.4610073             -12.5446
        22        2.0000           -0.4564873             -12.4217
        23        2.0000           -0.4435004             -12.0683
        24        2.0000           -0.4381366             -11.9223
        25        2.0000           -0.4238665             -11.5340
        26        2.0000           -0.4164521             -11.3322
        27        2.0000           -0.4070249             -11.0757
        28        2.0000           -0.4029613             -10.9651
        29        2.0000           -0.3994513             -10.8696
        30        2.0000           -0.3641654              -9.9094 (HOMO)
        31                         -0.2300900              -6.2611 (LUMO)
        32                         -0.2216287              -6.0308
        33                         -0.1542871              -4.1984
        34                         -0.1503089              -4.0901
        35                         -0.0931357              -2.5344
        36                          0.0034253               0.0932
        37                          0.0494219               1.3448
        38                          0.0997123               2.7133
        39                          0.1119518               3.0464
        40                          0.1212383               3.2991
        41                          0.1308164               3.5597
       ...                                ...                  ...
        64                          0.7780674              21.1723
      -------------------------------------------------------------
                  HL-Gap            0.1340754 Eh            3.6484 eV

     #   Z          covCN         q      C6AA      α(0)
     1  15 P        3.031    -0.115   165.457    23.108
     2   6 C        3.747    -0.046    21.459     6.607
     3   1 H        0.926     0.042     2.420     2.433
     4   1 H        0.926     0.040     2.449     2.447
     5   6 C        3.780    -0.096    22.347     6.734
     6   1 H        0.925     0.038     2.471     2.458
     7   1 H        0.925     0.037     2.486     2.466
     8   1 H        0.925     0.033     2.540     2.492
     9   6 C        2.915     0.012    27.743     8.637
    10   6 C        2.955    -0.033    28.817     8.805
    11   6 C        3.035    -0.030    28.716     8.790
    12   6 C        2.920    -0.032    28.788     8.799
    13   6 C        2.918    -0.030    28.747     8.792
    14   6 C        2.920    -0.031    28.773     8.796
    15   1 H        0.926     0.036     2.506     2.476
    16   1 H        0.925     0.035     2.521     2.483
    17   1 H        0.926     0.027     2.629     2.536
    18   1 H        0.926     0.029     2.605     2.524
    19   1 H        0.926     0.028     2.617     2.530
    20   6 C        3.748    -0.045    21.452     6.606
    21   1 H        0.925     0.046     2.368     2.407
    22   1 H        0.926     0.040     2.448     2.446
    23   6 C        3.822    -0.097    22.341     6.726
    24   1 H        0.925     0.039     2.463     2.454
    25   1 H        0.925     0.041     2.434     2.440
    26   1 H        0.925     0.031     2.569     2.506

Wiberg/Mayer (AO) data.
largest (>0.10) Wiberg bond orders for each atom

     #   Z sym  total        # sym  WBO       # sym  WBO       # sym  WBO
 ---------------------------------------------------------------------------
     1  15 P    3.375 --    20 C    1.031     9 C    1.017     2 C    1.012
     2   6 C    3.994 --     1 P    1.012     5 C    1.012     4 H    0.957
                             3 H    0.956
     3   1 H    0.998 --     2 C    0.956
     4   1 H    0.998 --     2 C    0.957
     5   6 C    3.997 --     2 C    1.012     7 H    0.985     6 H    0.983
                             8 H    0.983
     6   1 H    0.999 --     5 C    0.983
     7   1 H    0.999 --     5 C    0.985
     8   1 H    0.999 --     5 C    0.983
     9   6 C    3.982 --    10 C    1.404    11 C    1.390     1 P    1.017
                            14 C    0.106
    10   6 C    3.993 --    12 C    1.439     9 C    1.404    15 H    0.961
                            13 C    0.107
    11   6 C    3.992 --    13 C    1.457     9 C    1.390    16 H    0.962
                            12 C    0.110
    12   6 C    3.993 --    14 C    1.442    10 C    1.439    17 H    0.970
                            11 C    0.110
    13   6 C    3.991 --    11 C    1.457    14 C    1.428    18 H    0.970
                            10 C    0.107
    14   6 C    3.992 --    12 C    1.442    13 C    1.428    19 H    0.971
                             9 C    0.106
    15   1 H    0.999 --    10 C    0.961
    16   1 H    0.999 --    11 C    0.962
    17   1 H    0.999 --    12 C    0.970
    18   1 H    0.999 --    13 C    0.970
    19   1 H    0.998 --    14 C    0.971
    20   6 C    3.995 --     1 P    1.031    23 C    1.016    22 H    0.956
                            21 H    0.949
    21   1 H    0.998 --    20 C    0.949
    22   1 H    0.998 --    20 C    0.956
    23   6 C    3.997 --    20 C    1.016    25 H    0.985    26 H    0.985
                            24 H    0.983
    24   1 H    0.998 --    23 C    0.983
    25   1 H    0.998 --    23 C    0.985
    26   1 H    0.999 --    23 C    0.985
 ---------------------------------------------------------------------------

molecular dipole:
                 x           y           z       tot (Debye)
 q only:       -0.219      -0.101      -0.207
   full:       -0.318      -0.396      -0.414       1.664

 projected vibrational frequencies (cm⁻¹)
eigval :       -0.00    -0.00    -0.00     0.00     0.00     0.00
eigval :       24.75    64.09    84.54   113.34   161.35   170.35
eigval :      201.64   222.56   248.10   262.05   315.22   361.08
eigval :      366.18   393.02   472.95   585.87   648.63   659.29
eigval :      679.02   690.62   736.47   760.67   769.37   872.94
eigval :      896.14   925.87   931.68   967.53   982.04   995.04
eigval :     1013.50  1017.16  1063.75  1077.74  1084.83  1115.13
eigval :     1123.26  1181.72  1203.73  1222.59  1230.95  1249.98
eigval :     1268.60  1280.16  1317.25  1407.71  1412.81  1421.50
eigval :     1448.77  1451.25  1462.02  1496.50  1499.47  1504.91
eigval :     1506.72  1578.20  1589.28  2936.06  2941.10  2951.52
eigval :     2954.95  3011.85  3012.30  3023.40  3025.17  3034.08
eigval :     3041.12  3053.99  3067.35  3074.31  3086.68  3093.26

   temp. (K)  partition function   enthalpy   heat capacity  entropy
                                   cal/mol     cal/K/mol   cal/K/mol   J/K/mol
 298.15  VIB  0.146E+05             6121.807     39.475     37.355
         ROT  0.115E+07              888.752      2.981     30.720
         INT  0.169E+11             7010.559     42.456     68.075
         TR   0.207E+28             1481.254      4.968     41.214
         TOT                        8491.8129    47.4245   109.2888   457.2644

       T/K    H(0)-H(T)+PV         H(T)/Eh          T*S/Eh         G(T)/Eh
   ------------------------------------------------------------------------
    298.15    0.135326E-01    0.232462E+00    0.519266E-01    0.180536E+00
   ------------------------------------------------------------------------

         :::::::::::::::::::::::::::::::::::::::::::::::::::::
         ::                  THERMODYNAMIC                  ::
         :::::::::::::::::::::::::::::::::::::::::::::::::::::
         :: total free energy         -31.375126268995 Eh   ::
         ::.................................................::
         :: total energy              -31.555661839684 Eh   ::
         :: zero point energy           0.218929645865 Eh   ::
         :: G(RRHO) w/o ZPVE           -0.038394075176 Eh   ::
         :: G(RRHO) contrib.            0.180535570689 Eh   ::
         :::::::::::::::::::::::::::::::::::::::::::::::::::::

           -------------------------------------------------
          | TOTAL ENERGY              -31.555661839684 Eh   |
          | TOTAL ENTHALPY            -31.323199628527 Eh   |
          | TOTAL FREE ENERGY         -31.375126268995 Eh   |
          | GRADIENT NORM               0.000048314093 Eh/α |
          | HOMO-LUMO GAP               3.648376462615 eV   |
           -------------------------------------------------

 * finished run on 2025/07/14 at 11:38:51.503
