   * xtb version 6.7.0 (08769fc) compiled by 'albert@albert-system' on 2024-03-04

   ID    Z sym.   atoms
    1   15 P      1
    2    6 C      2, 5, 9-14, 20, 23
    3    1 H      3, 4, 6-8, 15-19, 21, 22, 24-26

          program call               : /home/minenky/programs/xtb/xtb-dist/bin/xtb m1_00_PEt2Ph-PBE0-D3-TZ-uniMM_6.xyz --charge 0 --T --ohess extreme --cycles 5000 --acc 0.01 --iterations 5000
          :  Hamiltonian                  GFN2-xTB          :
 * total energy  :   -31.5476495 Eh     change       -0.7105427E-14 Eh
 * total energy  :   -31.5526044 Eh     change       -0.4954933E-02 Eh
 * total energy  :   -31.5535836 Eh     change       -0.9791602E-03 Eh
 * total energy  :   -31.5540462 Eh     change       -0.4626518E-03 Eh
 * total energy  :   -31.5541881 Eh     change       -0.1419223E-03 Eh
 * total energy  :   -31.5542832 Eh     change       -0.9510022E-04 Eh
 * total energy  :   -31.5543302 Eh     change       -0.4698486E-04 Eh
 * total energy  :   -31.5543751 Eh     change       -0.4488227E-04 Eh
 * total energy  :   -31.5544173 Eh     change       -0.4214695E-04 Eh
 * total energy  :   -31.5545558 Eh     change       -0.1385838E-03 Eh
 * total energy  :   -31.5560311 Eh     change       -0.2874589E-06 Eh
 * total energy  :   -31.5560314 Eh     change       -0.2890732E-06 Eh
 * total energy  :   -31.5560316 Eh     change       -0.2268864E-06 Eh
 * total energy  :   -31.5560318 Eh     change       -0.1518854E-06 Eh
 * total energy  :   -31.5560319 Eh     change       -0.1634006E-06 Eh
 * total energy  :   -31.5560321 Eh     change       -0.2002430E-06 Eh
 * total energy  :   -31.5560324 Eh     change       -0.2541320E-06 Eh
 * total energy  :   -31.5560326 Eh     change       -0.2233232E-06 Eh
 * total energy  :   -31.5560326 Eh     change       -0.1628710E-08 Eh
   *** GEOMETRY OPTIMIZATION CONVERGED AFTER 44 ITERATIONS ***

 final structure:
================
26
 xtb: 6.7.0 (08769fc)
P            1.63745851058105       -0.49227774781475       -3.23744714235175
C            1.84459779905099        0.64797498380354       -1.77211702038871
H            1.08295660554168        0.37402404202012       -1.03699221388438
H            2.83043446612536        0.49380204849404       -1.32344245498269
C            1.66903171325921        2.10246517330381       -2.18439023249927
H            0.69024477302159        2.25457174578558       -2.63507753026073
H            2.42703142184545        2.38523370470946       -2.91337703246913
H            1.75785427517342        2.76026165132309       -1.32124938009946
C            3.21423333139611       -0.07862548126829       -4.09266421824917
C            4.47896022438304       -0.33035571626267       -3.57382934285752
C            3.10664374029476        0.54761396284818       -5.32983758795082
C            5.60914049581186        0.03843027428914       -4.28040801671812
C            4.23659427013394        0.92136162548049       -6.03461632199817
C            5.49181391427438        0.66576515508903       -5.50981601080158
H            4.59086209451647       -0.81593670200212       -2.61520634464677
H            2.12229109948318        0.74014530182686       -5.73426335596797
H            6.58820656906085       -0.16292425012846       -3.86888922844958
H            4.13921541240140        1.41022186386270       -6.99330714227901
H            6.37796959251760        0.95350764395362       -6.05662462953107
C            2.12181499636829       -2.09483542669265       -2.40759370957234
H            2.53649812681275       -2.74539702626598       -3.18263048535203
H            2.89195968606607       -1.92178844254367       -1.65165225043809
C            0.90706326648061       -2.75922320092586       -1.77117719989810
H            0.13773810939385       -2.93900931048234       -2.51920737283952
H            0.48301143953926       -2.12601593959410       -0.99425596831935
H            1.18244506646584       -3.71253893280841       -1.32287280719512

          :  Hamiltonian                  GFN2-xTB          :
         :: gradient norm              0.000027193342 Eh/a0 ::
         :: HOMO-LUMO gap              3.660090354189 eV    ::
         :: SCC energy               -32.076590393980 Eh    ::
         :: -> dispersion             -0.023580768933 Eh    ::
         :: repulsion energy           0.520557778310 Eh    ::

    * Orbital Energies and Occupations

         #    Occupation            Energy/Eh            Energy/eV
      -------------------------------------------------------------
         1        2.0000           -0.6579916             -17.9049
       ...           ...                  ...                  ...
        18        2.0000           -0.4773642             -12.9897
        19        2.0000           -0.4745794             -12.9140
        20        2.0000           -0.4631385             -12.6026
        21        2.0000           -0.4618395             -12.5673
        22        2.0000           -0.4526607             -12.3175
        23        2.0000           -0.4445295             -12.0963
        24        2.0000           -0.4380090             -11.9188
        25        2.0000           -0.4231198             -11.5137
        26        2.0000           -0.4183568             -11.3841
        27        2.0000           -0.4044955             -11.0069
        28        2.0000           -0.4041418             -10.9973
        29        2.0000           -0.3968398             -10.7986
        30        2.0000           -0.3673066              -9.9949 (HOMO)
        31                         -0.2328008              -6.3348 (LUMO)
        32                         -0.2228323              -6.0636
        33                         -0.1562279              -4.2512
        34                         -0.1510519              -4.1103
        35                         -0.0928379              -2.5262
        36                         -0.0016108              -0.0438
        37                          0.0587684               1.5992
        38                          0.0909303               2.4743
        39                          0.1078847               2.9357
        40                          0.1333955               3.6299
        41                          0.1364295               3.7124
       ...                                ...                  ...
        64                          0.7811334              21.2557
      -------------------------------------------------------------
                  HL-Gap            0.1345058 Eh            3.6601 eV

     #   Z          covCN         q      C6AA      α(0)
     1  15 P        3.056    -0.114   165.398    23.103
     2   6 C        3.748    -0.045    21.448     6.606
     3   1 H        0.925     0.040     2.452     2.449
     4   1 H        0.925     0.042     2.417     2.431
     5   6 C        3.820    -0.097    22.330     6.725
     6   1 H        0.925     0.042     2.426     2.436
     7   1 H        0.925     0.036     2.505     2.475
     8   1 H        0.925     0.032     2.552     2.498
     9   6 C        2.916     0.008    27.847     8.653
    10   6 C        2.960    -0.029    28.729     8.792
    11   6 C        3.018    -0.030    28.731     8.792
    12   6 C        2.919    -0.031    28.769     8.796
    13   6 C        2.918    -0.030    28.747     8.792
    14   6 C        2.920    -0.029    28.733     8.790
    15   1 H        0.926     0.031     2.565     2.505
    16   1 H        0.925     0.039     2.456     2.451
    17   1 H        0.926     0.028     2.611     2.527
    18   1 H        0.926     0.030     2.584     2.514
    19   1 H        0.926     0.029     2.598     2.520
    20   6 C        3.748    -0.047    21.491     6.612
    21   1 H        0.925     0.040     2.453     2.449
    22   1 H        0.925     0.041     2.431     2.438
    23   6 C        3.822    -0.098    22.350     6.728
    24   1 H        0.925     0.042     2.421     2.433
    25   1 H        0.925     0.036     2.498     2.471
    26   1 H        0.925     0.033     2.547     2.496

Wiberg/Mayer (AO) data.
largest (>0.10) Wiberg bond orders for each atom

     #   Z sym  total        # sym  WBO       # sym  WBO       # sym  WBO
 ---------------------------------------------------------------------------
     1  15 P    3.343 --    20 C    1.026     2 C    1.021     9 C    1.007
     2   6 C    3.996 --     1 P    1.021     5 C    1.017     3 H    0.958
                             4 H    0.952
     3   1 H    0.998 --     2 C    0.958
     4   1 H    0.998 --     2 C    0.952
     5   6 C    3.997 --     2 C    1.017     6 H    0.985     8 H    0.984
                             7 H    0.984
     6   1 H    0.998 --     5 C    0.985
     7   1 H    0.999 --     5 C    0.984
     8   1 H    0.999 --     5 C    0.984
     9   6 C    3.983 --    11 C    1.407    10 C    1.400     1 P    1.007
                            14 C    0.108
    10   6 C    3.993 --    12 C    1.449     9 C    1.400    15 H    0.962
                            13 C    0.110
    11   6 C    3.991 --    13 C    1.444     9 C    1.407    16 H    0.964
                            12 C    0.109
    12   6 C    3.993 --    10 C    1.449    14 C    1.433    17 H    0.970
                            11 C    0.109
    13   6 C    3.992 --    11 C    1.444    14 C    1.440    18 H    0.970
                            10 C    0.110
    14   6 C    3.990 --    13 C    1.440    12 C    1.433    19 H    0.971
                             9 C    0.108
    15   1 H    0.999 --    10 C    0.962
    16   1 H    0.998 --    11 C    0.964
    17   1 H    0.999 --    12 C    0.970
    18   1 H    0.999 --    13 C    0.970
    19   1 H    0.998 --    14 C    0.971
    20   6 C    3.994 --     1 P    1.026    23 C    1.016    21 H    0.960
                            22 H    0.951
    21   1 H    0.998 --    20 C    0.960
    22   1 H    0.998 --    20 C    0.951
    23   6 C    3.995 --    20 C    1.016    24 H    0.985    25 H    0.985
                            26 H    0.984
    24   1 H    0.998 --    23 C    0.985
    25   1 H    0.999 --    23 C    0.985
    26   1 H    0.998 --    23 C    0.984
 ---------------------------------------------------------------------------

molecular dipole:
                 x           y           z       tot (Debye)
 q only:        0.117       0.000       0.218
   full:        0.476      -0.010       0.421       1.615

 projected vibrational frequencies (cm⁻¹)
eigval :       -0.00    -0.00    -0.00    -0.00    -0.00     0.00
eigval :        6.12    50.65    70.57    98.57   132.41   158.74
eigval :      199.06   214.71   231.09   266.49   293.25   333.08
eigval :      361.83   429.33   451.41   585.98   656.68   661.93
eigval :      687.29   698.87   736.20   761.06   778.38   873.68
eigval :      898.14   926.26   932.67   969.09   976.88   993.98
eigval :     1012.44  1018.54  1071.30  1077.03  1083.35  1117.32
eigval :     1120.91  1181.60  1198.01  1224.17  1229.20  1251.09
eigval :     1252.52  1279.95  1315.41  1409.69  1410.61  1423.30
eigval :     1438.75  1447.74  1457.29  1497.22  1498.84  1501.06
eigval :     1502.47  1579.68  1589.41  2926.95  2937.14  2948.33
eigval :     2951.14  3013.69  3014.41  3019.71  3024.84  3030.02
eigval :     3033.46  3062.68  3065.75  3073.96  3079.14  3087.96

   temp. (K)  partition function   enthalpy   heat capacity  entropy
                                   cal/mol     cal/K/mol   cal/K/mol   J/K/mol
 298.15  VIB  0.119E+06             6286.360     39.203     40.108
         ROT  0.122E+07              888.752      2.981     30.837
         INT  0.146E+12             7175.112     42.184     70.944
         TR   0.207E+28             1481.254      4.968     41.214
         TOT                        8656.3664    47.1520   112.1581   469.2694

       T/K    H(0)-H(T)+PV         H(T)/Eh          T*S/Eh         G(T)/Eh
   ------------------------------------------------------------------------
    298.15    0.137948E-01    0.232254E+00    0.532899E-01    0.178964E+00
   ------------------------------------------------------------------------

         :::::::::::::::::::::::::::::::::::::::::::::::::::::
         ::                  THERMODYNAMIC                  ::
         :::::::::::::::::::::::::::::::::::::::::::::::::::::
         :: total free energy         -31.377068538980 Eh   ::
         ::.................................................::
         :: total energy              -31.556032615671 Eh   ::
         :: zero point energy           0.218459203571 Eh   ::
         :: G(RRHO) w/o ZPVE           -0.039495126879 Eh   ::
         :: G(RRHO) contrib.            0.178964076691 Eh   ::
         :::::::::::::::::::::::::::::::::::::::::::::::::::::

           -------------------------------------------------
          | TOTAL ENERGY              -31.556032615671 Eh   |
          | TOTAL ENTHALPY            -31.323778614137 Eh   |
          | TOTAL FREE ENERGY         -31.377068538980 Eh   |
          | GRADIENT NORM               0.000027193108 Eh/α |
          | HOMO-LUMO GAP               3.660090325597 eV   |
           -------------------------------------------------

 * finished run on 2025/07/14 at 11:35:54.370
