   * xtb version 6.7.0 (08769fc) compiled by 'albert@albert-system' on 2024-03-04

   ID    Z sym.   atoms
    1   15 P      1
    2    6 C      2, 5, 9-14, 20, 23
    3    1 H      3, 4, 6-8, 15-19, 21, 22, 24-26

          program call               : /home/minenky/programs/xtb/xtb-dist/bin/xtb m1_00_PEt2Ph-PBE0-D3-TZ-uniMM_46.xyz --charge 0 --T --ohess extreme --cycles 5000 --acc 0.01 --iterations 5000
          :  Hamiltonian                  GFN2-xTB          :
 * total energy  :   -31.5428355 Eh     change       -0.6394885E-13 Eh
 * total energy  :   -31.5496704 Eh     change       -0.6834936E-02 Eh
 * total energy  :   -31.5516504 Eh     change       -0.1980012E-02 Eh
 * total energy  :   -31.5531447 Eh     change       -0.1494269E-02 Eh
 * total energy  :   -31.5538320 Eh     change       -0.6873140E-03 Eh
 * total energy  :   -31.5542405 Eh     change       -0.4084611E-03 Eh
 * total energy  :   -31.5544596 Eh     change       -0.2191710E-03 Eh
 * total energy  :   -31.5545800 Eh     change       -0.1204032E-03 Eh
 * total energy  :   -31.5546792 Eh     change       -0.9920178E-04 Eh
 * total energy  :   -31.5547644 Eh     change       -0.8514889E-04 Eh
 * total energy  :   -31.5560072 Eh     change       -0.4956290E-06 Eh
 * total energy  :   -31.5560077 Eh     change       -0.4585995E-06 Eh
 * total energy  :   -31.5560081 Eh     change       -0.4134729E-06 Eh
 * total energy  :   -31.5560084 Eh     change       -0.3540469E-06 Eh
 * total energy  :   -31.5560087 Eh     change       -0.3011585E-06 Eh
 * total energy  :   -31.5560090 Eh     change       -0.2687057E-06 Eh
 * total energy  :   -31.5560092 Eh     change       -0.2428774E-06 Eh
 * total energy  :   -31.5560095 Eh     change       -0.2600392E-06 Eh
 * total energy  :   -31.5560095 Eh     change       -0.2164899E-08 Eh
   *** GEOMETRY OPTIMIZATION CONVERGED AFTER 68 ITERATIONS ***

 final structure:
================
26
 xtb: 6.7.0 (08769fc)
P            1.66409090453971       -0.25011577258188       -2.91705167418105
C            1.19200099805226        1.49853586774992       -2.45574680598672
H            1.34086485502810        1.60047898585374       -1.37731372721733
H            1.85788562768691        2.20091843214500       -2.96642558448797
C           -0.25955527795791        1.78766736054464       -2.80933186358339
H           -0.92089650752785        1.08592863254851       -2.30486278943722
H           -0.41614916038004        1.69242748172066       -3.88273674345845
H           -0.53409608487953        2.79768467450707       -2.50916351995260
C            1.71928420448796       -0.00136147204695       -4.73940348995991
C            2.69323082630940        0.73056863321023       -5.40817952291646
C            0.68701697981233       -0.57681226755073       -5.47339233888288
C            2.63116225962752        0.88244234539729       -6.78166816497052
C            0.62081505465594       -0.41922189691271       -6.84572211544021
C            1.59591834774807        0.31142104993989       -7.50306929688602
H            3.50668683878853        1.18632274539754       -4.86293338556976
H           -0.06690275172335       -1.15178407093888       -4.95290984657058
H            3.39456599068869        1.45211184940199       -7.29269983967300
H           -0.18864612081518       -0.86786718308268       -7.40347726381143
H            1.55135556057581        0.43518994414350       -8.57533040070850
C            3.48174903639332       -0.15501708919388       -2.49660201647493
H            4.00461510682189       -0.85142389637618       -3.15794282551470
H            3.86751332559157        0.85222914800193       -2.67426206782224
C            3.71421587110514       -0.55138681394049       -1.04343894148587
H            3.33924740648627       -1.55606263986149       -0.85977227757687
H            3.19921600209968        0.13080506119970       -0.36974683508694
H            4.77650070678397       -0.53011010927659       -0.80528066234486

          :  Hamiltonian                  GFN2-xTB          :
         :: gradient norm              0.000037818515 Eh/a0 ::
         :: HOMO-LUMO gap              3.674268905787 eV    ::
         :: SCC energy               -32.076513090422 Eh    ::
         :: -> dispersion             -0.023591364210 Eh    ::
         :: repulsion energy           0.520503590707 Eh    ::

    * Orbital Energies and Occupations

         #    Occupation            Energy/Eh            Energy/eV
      -------------------------------------------------------------
         1        2.0000           -0.6581210             -17.9084
       ...           ...                  ...                  ...
        18        2.0000           -0.4772114             -12.9856
        19        2.0000           -0.4744150             -12.9095
        20        2.0000           -0.4634101             -12.6100
        21        2.0000           -0.4617645             -12.5653
        22        2.0000           -0.4522259             -12.3057
        23        2.0000           -0.4448242             -12.1043
        24        2.0000           -0.4383482             -11.9281
        25        2.0000           -0.4229812             -11.5099
        26        2.0000           -0.4180869             -11.3767
        27        2.0000           -0.4047177             -11.0129
        28        2.0000           -0.4039190             -10.9912
        29        2.0000           -0.3969441             -10.8014
        30        2.0000           -0.3672198              -9.9926 (HOMO)
        31                         -0.2321929              -6.3183 (LUMO)
        32                         -0.2226642              -6.0590
        33                         -0.1559294              -4.2431
        34                         -0.1517643              -4.1297
        35                         -0.0928410              -2.5263
        36                         -0.0023073              -0.0628
        37                          0.0597533               1.6260
        38                          0.0923973               2.5143
        39                          0.1111888               3.0256
        40                          0.1316250               3.5817
        41                          0.1364746               3.7137
       ...                                ...                  ...
        64                          0.7814710              21.2649
      -------------------------------------------------------------
                  HL-Gap            0.1350269 Eh            3.6743 eV

     #   Z          covCN         q      C6AA      α(0)
     1  15 P        3.058    -0.113   165.369    23.101
     2   6 C        3.748    -0.045    21.445     6.605
     3   1 H        0.925     0.040     2.445     2.445
     4   1 H        0.925     0.042     2.422     2.434
     5   6 C        3.817    -0.097    22.338     6.726
     6   1 H        0.925     0.042     2.425     2.435
     7   1 H        0.925     0.036     2.498     2.472
     8   1 H        0.925     0.033     2.551     2.498
     9   6 C        2.916     0.008    27.844     8.653
    10   6 C        2.959    -0.030    28.752     8.795
    11   6 C        3.021    -0.030    28.729     8.792
    12   6 C        2.919    -0.031    28.768     8.795
    13   6 C        2.918    -0.030    28.749     8.793
    14   6 C        2.920    -0.030    28.737     8.791
    15   1 H        0.926     0.032     2.559     2.502
    16   1 H        0.925     0.039     2.460     2.453
    17   1 H        0.926     0.028     2.613     2.528
    18   1 H        0.926     0.030     2.588     2.516
    19   1 H        0.926     0.029     2.600     2.521
    20   6 C        3.748    -0.048    21.496     6.613
    21   1 H        0.925     0.040     2.445     2.445
    22   1 H        0.925     0.041     2.433     2.439
    23   6 C        3.824    -0.098    22.349     6.727
    24   1 H        0.925     0.042     2.420     2.433
    25   1 H        0.925     0.036     2.498     2.472
    26   1 H        0.925     0.033     2.548     2.496

Wiberg/Mayer (AO) data.
largest (>0.10) Wiberg bond orders for each atom

     #   Z sym  total        # sym  WBO       # sym  WBO       # sym  WBO
 ---------------------------------------------------------------------------
     1  15 P    3.345 --    20 C    1.028     2 C    1.018     9 C    1.009
     2   6 C    3.996 --     1 P    1.018     5 C    1.018     3 H    0.957
                             4 H    0.952
     3   1 H    0.998 --     2 C    0.957
     4   1 H    0.998 --     2 C    0.952
     5   6 C    3.997 --     2 C    1.018     6 H    0.985     8 H    0.984
                             7 H    0.984
     6   1 H    0.998 --     5 C    0.985
     7   1 H    0.999 --     5 C    0.984
     8   1 H    0.999 --     5 C    0.984
     9   6 C    3.983 --    11 C    1.405    10 C    1.401     1 P    1.009
                            14 C    0.108
    10   6 C    3.993 --    12 C    1.447     9 C    1.401    15 H    0.963
                            13 C    0.110
    11   6 C    3.991 --    13 C    1.445     9 C    1.405    16 H    0.964
                            12 C    0.109
    12   6 C    3.993 --    10 C    1.447    14 C    1.434    17 H    0.970
                            11 C    0.109
    13   6 C    3.992 --    11 C    1.445    14 C    1.438    18 H    0.970
                            10 C    0.110
    14   6 C    3.991 --    13 C    1.438    12 C    1.434    19 H    0.971
                             9 C    0.108
    15   1 H    0.999 --    10 C    0.963
    16   1 H    0.998 --    11 C    0.964
    17   1 H    0.999 --    12 C    0.970
    18   1 H    0.999 --    13 C    0.970
    19   1 H    0.998 --    14 C    0.971
    20   6 C    3.995 --     1 P    1.028    23 C    1.016    21 H    0.959
                            22 H    0.952
    21   1 H    0.998 --    20 C    0.959
    22   1 H    0.998 --    20 C    0.952
    23   6 C    3.996 --    20 C    1.016    24 H    0.985    26 H    0.985
                            25 H    0.984
    24   1 H    0.998 --    23 C    0.985
    25   1 H    0.999 --    23 C    0.984
    26   1 H    0.998 --    23 C    0.985
 ---------------------------------------------------------------------------

molecular dipole:
                 x           y           z       tot (Debye)
 q only:        0.108       0.223       0.046
   full:        0.326       0.531      -0.116       1.612

 projected vibrational frequencies (cm⁻¹)
eigval :       -0.00    -0.00     0.00     0.00     0.00     0.00
eigval :       13.20    55.59    75.44   100.68   130.58   160.50
eigval :      200.29   215.55   234.23   266.19   287.76   334.98
eigval :      361.41   428.66   453.60   585.96   657.23   661.67
eigval :      687.17   699.32   735.47   763.51   780.37   873.45
eigval :      897.92   926.25   932.61   969.15   977.30   994.11
eigval :     1012.16  1018.96  1070.91  1077.40  1083.59  1117.43
eigval :     1120.77  1181.60  1198.56  1224.76  1229.77  1251.15
eigval :     1251.93  1280.04  1315.44  1409.55  1410.88  1423.24
eigval :     1438.69  1448.82  1457.51  1497.24  1498.81  1501.06
eigval :     1502.65  1579.54  1589.27  2924.58  2935.26  2947.71
eigval :     2950.98  3013.78  3014.47  3020.46  3024.44  3029.83
eigval :     3033.58  3061.11  3066.47  3074.53  3081.69  3088.27

   temp. (K)  partition function   enthalpy   heat capacity  entropy
                                   cal/mol     cal/K/mol   cal/K/mol   J/K/mol
 298.15  VIB  0.480E+05             6258.361     39.322     39.185
         ROT  0.122E+07              888.752      2.981     30.836
         INT  0.587E+11             7147.113     42.303     70.021
         TR   0.207E+28             1481.254      4.968     41.214
         TOT                        8628.3674    47.2713   111.2347   465.4061

       T/K    H(0)-H(T)+PV         H(T)/Eh          T*S/Eh         G(T)/Eh
   ------------------------------------------------------------------------
    298.15    0.137502E-01    0.232270E+00    0.528512E-01    0.179419E+00
   ------------------------------------------------------------------------

         :::::::::::::::::::::::::::::::::::::::::::::::::::::
         ::                  THERMODYNAMIC                  ::
         :::::::::::::::::::::::::::::::::::::::::::::::::::::
         :: total free energy         -31.376590871579 Eh   ::
         ::.................................................::
         :: total energy              -31.556009499715 Eh   ::
         :: zero point energy           0.218519654326 Eh   ::
         :: G(RRHO) w/o ZPVE           -0.039101026190 Eh   ::
         :: G(RRHO) contrib.            0.179418628136 Eh   ::
         :::::::::::::::::::::::::::::::::::::::::::::::::::::

           -------------------------------------------------
          | TOTAL ENERGY              -31.556009499715 Eh   |
          | TOTAL ENTHALPY            -31.323739666695 Eh   |
          | TOTAL FREE ENERGY         -31.376590871579 Eh   |
          | GRADIENT NORM               0.000037818788 Eh/α |
          | HOMO-LUMO GAP               3.674268880128 eV   |
           -------------------------------------------------

 * finished run on 2025/07/14 at 11:33:28.318
