   * xtb version 6.7.0 (08769fc) compiled by 'albert@albert-system' on 2024-03-04

   ID    Z sym.   atoms
    1   15 P      1
    2    6 C      2, 5, 9-14, 20, 23
    3    1 H      3, 4, 6-8, 15-19, 21, 22, 24-26

          program call               : /home/minenky/programs/xtb/xtb-dist/bin/xtb m1_00_PEt2Ph-PBE0-D3-TZ-uniMM_70.xyz --charge 0 --T --ohess extreme --cycles 5000 --acc 0.01 --iterations 5000
          :  Hamiltonian                  GFN2-xTB          :
 * total energy  :   -31.5310408 Eh     change       -0.1207923E-12 Eh
 * total energy  :   -31.5451405 Eh     change       -0.1409970E-01 Eh
 * total energy  :   -31.5481710 Eh     change       -0.3030552E-02 Eh
 * total energy  :   -31.5498767 Eh     change       -0.1705705E-02 Eh
 * total energy  :   -31.5506751 Eh     change       -0.7983420E-03 Eh
 * total energy  :   -31.5511087 Eh     change       -0.4336053E-03 Eh
 * total energy  :   -31.5513927 Eh     change       -0.2839965E-03 Eh
 * total energy  :   -31.5515716 Eh     change       -0.1789478E-03 Eh
 * total energy  :   -31.5517281 Eh     change       -0.1565283E-03 Eh
 * total energy  :   -31.5519074 Eh     change       -0.1792485E-03 Eh
 * total energy  :   -31.5559282 Eh     change       -0.4469925E-05 Eh
 * total energy  :   -31.5559295 Eh     change       -0.1363166E-05 Eh
 * total energy  :   -31.5559300 Eh     change       -0.4856294E-06 Eh
 * total energy  :   -31.5559302 Eh     change       -0.1514939E-06 Eh
 * total energy  :   -31.5559302 Eh     change       -0.9159303E-07 Eh
 * total energy  :   -31.5559302 Eh     change        0.1704960E-07 Eh
 * total energy  :   -31.5559303 Eh     change       -0.7973150E-07 Eh
 * total energy  :   -31.5559303 Eh     change        0.1154492E-07 Eh
 * total energy  :   -31.5559303 Eh     change       -0.4948162E-07 Eh
   *** GEOMETRY OPTIMIZATION CONVERGED AFTER 55 ITERATIONS ***

 final structure:
================
26
 xtb: 6.7.0 (08769fc)
P            1.87918971144936        0.36006847241890       -2.81016495547084
C            1.37826466268325        1.24091611446400       -4.37549590384024
H            0.29907348892913        1.17322801009763       -4.53139413064783
H            1.64161586806059        2.29320398989279       -4.23317430675001
C            2.13535512745794        0.69821874037492       -5.58090169071576
H            1.84643971882193       -0.32820593954813       -5.79583150795696
H            3.20782242976079        0.71872935041506       -5.39590129298896
H            1.92710752909109        1.30136061045968       -6.46342821215288
C            0.59716852989456        0.96080072834940       -1.64275215039299
C           -0.19315589899631        2.08539228293479       -1.84870920348710
C            0.49121500822827        0.28380915382109       -0.42896260832246
C           -1.09752388107743        2.49275544862656       -0.88275205118430
C           -0.41394402232715        0.68804992957814        0.53248944779343
C           -1.21766341463593        1.79357952078208        0.30509379836987
H           -0.11125703260267        2.65366775446617       -2.76260874967593
H            1.12992891393868       -0.56870042047574       -0.24140373837031
H           -1.71161102809184        3.36422778488199       -1.06079563123895
H           -0.49033092836917        0.14523435695865        1.46377765472802
H           -1.92694320679339        2.11320344717794        1.05440804081014
C            1.17574846705953       -1.34247954705606       -3.12978516610723
H            1.81480009700211       -1.80683955921958       -3.88587319387064
H            1.32405689993191       -1.90444778717627       -2.20359392474603
C           -0.28640166507099       -1.41278451630399       -3.54728425565155
H           -0.43881058088504       -0.98156972570117       -4.53363076131797
H           -0.91646600418113       -0.88232528423757       -2.83519264222152
H           -0.61017678927953       -2.45209691597991       -3.58279786459025

          :  Hamiltonian                  GFN2-xTB          :
         :: gradient norm              0.000033638240 Eh/a0 ::
         :: HOMO-LUMO gap              3.636743781662 eV    ::
         :: SCC energy               -32.077057874117 Eh    ::
         :: -> dispersion             -0.024359545264 Eh    ::
         :: repulsion energy           0.521127526364 Eh    ::

    * Orbital Energies and Occupations

         #    Occupation            Energy/Eh            Energy/eV
      -------------------------------------------------------------
         1        2.0000           -0.6587494             -17.9255
       ...           ...                  ...                  ...
        18        2.0000           -0.4770386             -12.9809
        19        2.0000           -0.4739910             -12.8980
        20        2.0000           -0.4690259             -12.7628
        21        2.0000           -0.4616433             -12.5620
        22        2.0000           -0.4527083             -12.3188
        23        2.0000           -0.4451249             -12.1125
        24        2.0000           -0.4393747             -11.9560
        25        2.0000           -0.4247044             -11.5568
        26        2.0000           -0.4143487             -11.2750
        27        2.0000           -0.4078563             -11.0983
        28        2.0000           -0.4027885             -10.9604
        29        2.0000           -0.4006971             -10.9035
        30        2.0000           -0.3635142              -9.8917 (HOMO)
        31                         -0.2298663              -6.2550 (LUMO)
        32                         -0.2215215              -6.0279
        33                         -0.1545404              -4.2053
        34                         -0.1498232              -4.0769
        35                         -0.0933016              -2.5389
        36                          0.0108297               0.2947
        37                          0.0438632               1.1936
        38                          0.1057096               2.8765
        39                          0.1122329               3.0540
        40                          0.1165584               3.1717
        41                          0.1318922               3.5890
       ...                                ...                  ...
        64                          0.7997144              21.7613
      -------------------------------------------------------------
                  HL-Gap            0.1336479 Eh            3.6367 eV

     #   Z          covCN         q      C6AA      α(0)
     1  15 P        3.019    -0.113   165.358    23.101
     2   6 C        3.748    -0.045    21.450     6.606
     3   1 H        0.925     0.047     2.362     2.403
     4   1 H        0.926     0.041     2.441     2.443
     5   6 C        3.818    -0.097    22.333     6.726
     6   1 H        0.925     0.037     2.488     2.467
     7   1 H        0.925     0.041     2.431     2.438
     8   1 H        0.925     0.032     2.556     2.500
     9   6 C        2.915     0.010    27.791     8.645
    10   6 C        2.961    -0.034    28.833     8.807
    11   6 C        3.020    -0.030    28.728     8.792
    12   6 C        2.919    -0.031    28.767     8.795
    13   6 C        2.918    -0.030    28.754     8.793
    14   6 C        2.920    -0.031    28.777     8.797
    15   1 H        0.926     0.033     2.550     2.497
    16   1 H        0.925     0.034     2.533     2.489
    17   1 H        0.926     0.028     2.617     2.530
    18   1 H        0.926     0.029     2.604     2.524
    19   1 H        0.926     0.028     2.611     2.527
    20   6 C        3.748    -0.044    21.428     6.602
    21   1 H        0.926     0.041     2.438     2.442
    22   1 H        0.926     0.042     2.424     2.435
    23   6 C        3.780    -0.094    22.320     6.730
    24   1 H        0.925     0.038     2.478     2.462
    25   1 H        0.925     0.037     2.483     2.464
    26   1 H        0.925     0.032     2.560     2.502

Wiberg/Mayer (AO) data.
largest (>0.10) Wiberg bond orders for each atom

     #   Z sym  total        # sym  WBO       # sym  WBO       # sym  WBO
 ---------------------------------------------------------------------------
     1  15 P    3.378 --     2 C    1.027     9 C    1.019    20 C    1.015
     2   6 C    3.995 --     1 P    1.027     5 C    1.015     4 H    0.956
                             3 H    0.951
     3   1 H    0.998 --     2 C    0.951
     4   1 H    0.998 --     2 C    0.956
     5   6 C    3.996 --     2 C    1.015     8 H    0.985     7 H    0.984
                             6 H    0.984
     6   1 H    0.999 --     5 C    0.984
     7   1 H    0.998 --     5 C    0.984
     8   1 H    0.999 --     5 C    0.985
     9   6 C    3.982 --    10 C    1.402    11 C    1.390     1 P    1.019
                            14 C    0.106
    10   6 C    3.993 --    12 C    1.441     9 C    1.402    15 H    0.963
                            13 C    0.107
    11   6 C    3.992 --    13 C    1.457     9 C    1.390    16 H    0.962
                            12 C    0.110
    12   6 C    3.993 --    14 C    1.441    10 C    1.441    17 H    0.970
                            11 C    0.110
    13   6 C    3.992 --    11 C    1.457    14 C    1.428    18 H    0.970
                            10 C    0.107
    14   6 C    3.991 --    12 C    1.441    13 C    1.428    19 H    0.971
                             9 C    0.106
    15   1 H    0.999 --    10 C    0.963
    16   1 H    0.999 --    11 C    0.962
    17   1 H    0.999 --    12 C    0.970
    18   1 H    0.999 --    13 C    0.970
    19   1 H    0.998 --    14 C    0.971
    20   6 C    3.994 --     1 P    1.015    23 C    1.012    21 H    0.956
                            22 H    0.954
    21   1 H    0.998 --    20 C    0.956
    22   1 H    0.998 --    20 C    0.954
    23   6 C    3.997 --    20 C    1.012    24 H    0.984    26 H    0.983
                            25 H    0.983
    24   1 H    0.999 --    23 C    0.984
    25   1 H    0.999 --    23 C    0.983
    26   1 H    0.999 --    23 C    0.983
 ---------------------------------------------------------------------------

molecular dipole:
                 x           y           z       tot (Debye)
 q only:       -0.195      -0.121      -0.264
   full:       -0.551      -0.129      -0.345       1.685

 projected vibrational frequencies (cm⁻¹)
eigval :       -0.00    -0.00    -0.00    -0.00    -0.00     0.00
eigval :       27.01    70.46    81.98   127.39   129.68   199.79
eigval :      204.41   228.08   261.76   277.25   283.89   357.06
eigval :      363.03   406.11   473.01   585.97   638.33   657.05
eigval :      683.13   704.63   729.42   746.82   791.35   871.04
eigval :      894.36   925.05   931.12   968.60   974.50   998.59
eigval :     1012.51  1021.91  1065.63  1073.02  1085.88  1115.63
eigval :     1123.40  1181.90  1203.40  1225.81  1227.83  1251.27
eigval :     1266.78  1282.37  1316.90  1408.53  1410.80  1421.69
eigval :     1451.02  1455.26  1462.14  1497.27  1501.02  1504.92
eigval :     1508.41  1577.42  1589.06  2938.85  2942.33  2949.20
eigval :     2960.84  3011.21  3013.19  3023.94  3024.89  3034.49
eigval :     3039.12  3059.02  3068.35  3074.73  3087.01  3094.10

   temp. (K)  partition function   enthalpy   heat capacity  entropy
                                   cal/mol     cal/K/mol   cal/K/mol   J/K/mol
 298.15  VIB  0.119E+05             6091.253     39.516     37.049
         ROT  0.113E+07              888.752      2.981     30.681
         INT  0.135E+11             6980.005     42.496     67.730
         TR   0.207E+28             1481.254      4.968     41.214
         TOT                        8461.2592    47.4646   108.9441   455.8219

       T/K    H(0)-H(T)+PV         H(T)/Eh          T*S/Eh         G(T)/Eh
   ------------------------------------------------------------------------
    298.15    0.134839E-01    0.232539E+00    0.517628E-01    0.180776E+00
   ------------------------------------------------------------------------

         :::::::::::::::::::::::::::::::::::::::::::::::::::::
         ::                  THERMODYNAMIC                  ::
         :::::::::::::::::::::::::::::::::::::::::::::::::::::
         :: total free energy         -31.375154628662 Eh   ::
         ::.................................................::
         :: total energy              -31.555930347754 Eh   ::
         :: zero point energy           0.219054681411 Eh   ::
         :: G(RRHO) w/o ZPVE           -0.038278962319 Eh   ::
         :: G(RRHO) contrib.            0.180775719091 Eh   ::
         :::::::::::::::::::::::::::::::::::::::::::::::::::::

           -------------------------------------------------
          | TOTAL ENERGY              -31.555930347754 Eh   |
          | TOTAL ENTHALPY            -31.323391791556 Eh   |
          | TOTAL FREE ENERGY         -31.375154628662 Eh   |
          | GRADIENT NORM               0.000033638346 Eh/α |
          | HOMO-LUMO GAP               3.636743768941 eV   |
           -------------------------------------------------

 * finished run on 2025/07/14 at 11:38:15.966
