   * xtb version 6.7.0 (08769fc) compiled by 'albert@albert-system' on 2024-03-04

   ID    Z sym.   atoms
    1   15 P      1
    2    6 C      2, 5, 9-14, 20, 23
    3    1 H      3, 4, 6-8, 15-19, 21, 22, 24-26

          program call               : /home/minenky/programs/xtb/xtb-dist/bin/xtb m1_00_PEt2Ph-PBE0-D3-TZ-uniMM_48.xyz --charge 0 --T --ohess extreme --cycles 5000 --acc 0.01 --iterations 5000
          :  Hamiltonian                  GFN2-xTB          :
 * total energy  :   -31.5393825 Eh     change        0.2131628E-13 Eh
 * total energy  :   -31.5436059 Eh     change       -0.4223417E-02 Eh
 * total energy  :   -31.5443616 Eh     change       -0.7557490E-03 Eh
 * total energy  :   -31.5445953 Eh     change       -0.2336751E-03 Eh
 * total energy  :   -31.5446811 Eh     change       -0.8582047E-04 Eh
 * total energy  :   -31.5447692 Eh     change       -0.8802091E-04 Eh
 * total energy  :   -31.5448511 Eh     change       -0.8192467E-04 Eh
 * total energy  :   -31.5449267 Eh     change       -0.7564885E-04 Eh
 * total energy  :   -31.5450147 Eh     change       -0.8800963E-04 Eh
 * total energy  :   -31.5451351 Eh     change       -0.1203478E-03 Eh
 * total energy  :   -31.5556662 Eh     change       -0.2009650E-06 Eh
 * total energy  :   -31.5556665 Eh     change       -0.2429399E-06 Eh
 * total energy  :   -31.5556667 Eh     change       -0.2341756E-06 Eh
 * total energy  :   -31.5556669 Eh     change       -0.1896011E-06 Eh
 * total energy  :   -31.5556671 Eh     change       -0.1392313E-06 Eh
 * total energy  :   -31.5556672 Eh     change       -0.1033766E-06 Eh
 * total energy  :   -31.5556672 Eh     change       -0.9336625E-07 Eh
 * total energy  :   -31.5556673 Eh     change       -0.9427490E-07 Eh
 * total energy  :   -31.5556673 Eh     change       -0.6065548E-09 Eh
   *** GEOMETRY OPTIMIZATION CONVERGED AFTER 68 ITERATIONS ***

 final structure:
================
26
 xtb: 6.7.0 (08769fc)
P            1.89991912824298       -0.41941428150096       -3.15857575166125
C            2.66978757137225        0.72622676073192       -1.90669896584734
H            3.73841008039981        0.75709094685739       -2.14026862872585
H            2.27233900344403        1.73879516236348       -2.00342756634588
C            2.47420690565232        0.19575342915625       -0.49104078327215
H            2.92477062365075       -0.78984653075957       -0.39379895546250
H            1.41655972124576        0.10331141366247       -0.25135871524822
H            2.93729219710680        0.86069602776643        0.23680710229410
C            0.16705832683646        0.18065574393597       -3.25429443641265
C           -0.61757712188681       -0.41594637455230       -4.23979021748849
C           -0.42081523062131        1.10921455238258       -2.40494672033062
C           -1.94342258108656       -0.06520593305702       -4.40050300146644
C           -1.75199259878963        1.45652817573879       -2.56256256447768
C           -2.51483395130500        0.87791515750256       -3.56128072024223
H           -0.17318940798217       -1.16373652477230       -4.88335794093385
H            0.14887399286704        1.57392915625262       -1.61478751280989
H           -2.53561221045943       -0.53026989978151       -5.17557231738791
H           -2.19505438712738        2.18550701420218       -1.89865598659843
H           -3.55213084673110        1.15442857472744       -3.68110398956813
C            2.53287023229657        0.37672686768035       -4.72731116087123
H            3.60657498087673        0.17040439231532       -4.76483638749238
H            2.06983876734389       -0.17305428060965       -5.55155845605400
C            2.27195314239722        1.86757641495588       -4.89213892608848
H            2.82728927914310        2.44913153661097       -4.16059428953822
H            1.21176947375425        2.08807402024351       -4.78015446776089
H            2.58514790935938        2.18881747794600       -5.88450564020629

          :  Hamiltonian                  GFN2-xTB          :
         :: gradient norm              0.000018880209 Eh/a0 ::
         :: HOMO-LUMO gap              3.648624351515 eV    ::
         :: SCC energy               -32.076676093271 Eh    ::
         :: -> dispersion             -0.024326349316 Eh    ::
         :: repulsion energy           0.521008748702 Eh    ::

    * Orbital Energies and Occupations

         #    Occupation            Energy/Eh            Energy/eV
      -------------------------------------------------------------
         1        2.0000           -0.6587744             -17.9262
       ...           ...                  ...                  ...
        18        2.0000           -0.4754207             -12.9369
        19        2.0000           -0.4741800             -12.9031
        20        2.0000           -0.4670915             -12.7102
        21        2.0000           -0.4610115             -12.5448
        22        2.0000           -0.4564756             -12.4213
        23        2.0000           -0.4434699             -12.0674
        24        2.0000           -0.4381730             -11.9233
        25        2.0000           -0.4239384             -11.5360
        26        2.0000           -0.4163240             -11.3288
        27        2.0000           -0.4071371             -11.0788
        28        2.0000           -0.4029417             -10.9646
        29        2.0000           -0.3995344             -10.8719
        30        2.0000           -0.3641280              -9.9084 (HOMO)
        31                         -0.2300435              -6.2598 (LUMO)
        32                         -0.2216001              -6.0300
        33                         -0.1545869              -4.2065
        34                         -0.1502572              -4.0887
        35                         -0.0931826              -2.5356
        36                          0.0037262               0.1014
        37                          0.0491451               1.3373
        38                          0.0992463               2.7006
        39                          0.1124242               3.0592
        40                          0.1210910               3.2951
        41                          0.1307089               3.5568
       ...                                ...                  ...
        64                          0.7773599              21.1530
      -------------------------------------------------------------
                  HL-Gap            0.1340845 Eh            3.6486 eV

     #   Z          covCN         q      C6AA      α(0)
     1  15 P        3.030    -0.114   165.425    23.105
     2   6 C        3.748    -0.045    21.454     6.606
     3   1 H        0.926     0.040     2.446     2.446
     4   1 H        0.925     0.046     2.368     2.407
     5   6 C        3.821    -0.097    22.342     6.726
     6   1 H        0.925     0.041     2.434     2.440
     7   1 H        0.925     0.039     2.464     2.455
     8   1 H        0.925     0.031     2.569     2.507
     9   6 C        2.915     0.012    27.743     8.637
    10   6 C        3.033    -0.030    28.717     8.790
    11   6 C        2.956    -0.033    28.819     8.805
    12   6 C        2.918    -0.030    28.748     8.792
    13   6 C        2.920    -0.032    28.787     8.799
    14   6 C        2.920    -0.031    28.774     8.797
    15   1 H        0.925     0.035     2.523     2.484
    16   1 H        0.926     0.036     2.506     2.476
    17   1 H        0.926     0.029     2.606     2.524
    18   1 H        0.926     0.027     2.629     2.535
    19   1 H        0.926     0.028     2.617     2.530
    20   6 C        3.747    -0.046    21.461     6.608
    21   1 H        0.926     0.040     2.450     2.447
    22   1 H        0.926     0.042     2.421     2.433
    23   6 C        3.780    -0.096    22.347     6.734
    24   1 H        0.925     0.037     2.486     2.466
    25   1 H        0.925     0.038     2.472     2.458
    26   1 H        0.925     0.033     2.540     2.492

Wiberg/Mayer (AO) data.
largest (>0.10) Wiberg bond orders for each atom

     #   Z sym  total        # sym  WBO       # sym  WBO       # sym  WBO
 ---------------------------------------------------------------------------
     1  15 P    3.374 --     2 C    1.030     9 C    1.018    20 C    1.012
     2   6 C    3.995 --     1 P    1.030     5 C    1.016     3 H    0.956
                             4 H    0.949
     3   1 H    0.998 --     2 C    0.956
     4   1 H    0.998 --     2 C    0.949
     5   6 C    3.997 --     2 C    1.016     6 H    0.985     8 H    0.985
                             7 H    0.983
     6   1 H    0.998 --     5 C    0.985
     7   1 H    0.998 --     5 C    0.983
     8   1 H    0.999 --     5 C    0.985
     9   6 C    3.982 --    11 C    1.404    10 C    1.390     1 P    1.018
                            14 C    0.106
    10   6 C    3.992 --    12 C    1.457     9 C    1.390    15 H    0.962
                            13 C    0.110
    11   6 C    3.993 --    13 C    1.439     9 C    1.404    16 H    0.961
                            12 C    0.107
    12   6 C    3.991 --    10 C    1.457    14 C    1.428    17 H    0.970
                            11 C    0.107
    13   6 C    3.993 --    14 C    1.442    11 C    1.439    18 H    0.970
                            10 C    0.110
    14   6 C    3.992 --    13 C    1.442    12 C    1.428    19 H    0.971
                             9 C    0.106
    15   1 H    0.999 --    10 C    0.962
    16   1 H    0.999 --    11 C    0.961
    17   1 H    0.999 --    12 C    0.970
    18   1 H    0.999 --    13 C    0.970
    19   1 H    0.998 --    14 C    0.971
    20   6 C    3.994 --     1 P    1.012    23 C    1.012    21 H    0.957
                            22 H    0.956
    21   1 H    0.998 --    20 C    0.957
    22   1 H    0.998 --    20 C    0.956
    23   6 C    3.997 --    20 C    1.012    24 H    0.985    26 H    0.983
                            25 H    0.983
    24   1 H    0.999 --    23 C    0.985
    25   1 H    0.999 --    23 C    0.983
    26   1 H    0.999 --    23 C    0.983
 ---------------------------------------------------------------------------

molecular dipole:
                 x           y           z       tot (Debye)
 q only:        0.137       0.287      -0.024
   full:        0.058       0.647      -0.074       1.663

 projected vibrational frequencies (cm⁻¹)
eigval :       -0.00    -0.00    -0.00    -0.00     0.00     0.00
eigval :       24.96    64.50    85.26   113.39   161.59   170.51
eigval :      201.54   222.44   248.22   262.84   314.40   361.35
eigval :      366.32   392.79   473.25   585.81   648.65   659.32
eigval :      679.19   690.28   736.61   760.64   769.38   872.82
eigval :      896.05   925.81   931.62   967.51   982.29   995.09
eigval :     1013.57  1017.29  1063.78  1077.68  1084.86  1115.14
eigval :     1123.36  1181.74  1203.78  1222.76  1230.79  1250.36
eigval :     1268.45  1280.25  1317.25  1407.86  1412.82  1421.43
eigval :     1448.90  1451.32  1461.78  1496.55  1499.40  1504.99
eigval :     1506.49  1578.18  1589.22  2936.20  2941.18  2951.20
eigval :     2955.38  3011.72  3012.41  3023.58  3025.41  3034.24
eigval :     3041.04  3054.57  3067.44  3074.38  3086.79  3093.53

   temp. (K)  partition function   enthalpy   heat capacity  entropy
                                   cal/mol     cal/K/mol   cal/K/mol   J/K/mol
 298.15  VIB  0.143E+05             6119.393     39.484     37.324
         ROT  0.115E+07              888.752      2.981     30.720
         INT  0.165E+11             7008.145     42.464     68.044
         TR   0.207E+28             1481.254      4.968     41.214
         TOT                        8489.3989    47.4325   109.2577   457.1344

       T/K    H(0)-H(T)+PV         H(T)/Eh          T*S/Eh         G(T)/Eh
   ------------------------------------------------------------------------
    298.15    0.135287E-01    0.232469E+00    0.519119E-01    0.180557E+00
   ------------------------------------------------------------------------

         :::::::::::::::::::::::::::::::::::::::::::::::::::::
         ::                  THERMODYNAMIC                  ::
         :::::::::::::::::::::::::::::::::::::::::::::::::::::
         :: total free energy         -31.375110636665 Eh   ::
         ::.................................................::
         :: total energy              -31.555667344569 Eh   ::
         :: zero point energy           0.218939871916 Eh   ::
         :: G(RRHO) w/o ZPVE           -0.038383164012 Eh   ::
         :: G(RRHO) contrib.            0.180556707904 Eh   ::
         :::::::::::::::::::::::::::::::::::::::::::::::::::::

           -------------------------------------------------
          | TOTAL ENERGY              -31.555667344569 Eh   |
          | TOTAL ENTHALPY            -31.323198754421 Eh   |
          | TOTAL FREE ENERGY         -31.375110636665 Eh   |
          | GRADIENT NORM               0.000018879990 Eh/α |
          | HOMO-LUMO GAP               3.648624393767 eV   |
           -------------------------------------------------

 * finished run on 2025/07/14 at 11:33:43.340
