   * xtb version 6.7.0 (08769fc) compiled by 'albert@albert-system' on 2024-03-04

   ID    Z sym.   atoms
    1   15 P      1
    2    6 C      2, 5, 9-14, 20, 23
    3    1 H      3, 4, 6-8, 15-19, 21, 22, 24-26

          program call               : /home/minenky/programs/xtb/xtb-dist/bin/xtb m1_00_PEt2Ph-PBE0-D3-TZ-uniMM_42.xyz --charge 0 --T --ohess extreme --cycles 5000 --acc 0.01 --iterations 5000
          :  Hamiltonian                  GFN2-xTB          :
 * total energy  :   -31.5439116 Eh     change       -0.2842171E-13 Eh
 * total energy  :   -31.5471562 Eh     change       -0.3244625E-02 Eh
 * total energy  :   -31.5481677 Eh     change       -0.1011533E-02 Eh
 * total energy  :   -31.5487391 Eh     change       -0.5713515E-03 Eh
 * total energy  :   -31.5491526 Eh     change       -0.4135698E-03 Eh
 * total energy  :   -31.5495227 Eh     change       -0.3701170E-03 Eh
 * total energy  :   -31.5498224 Eh     change       -0.2997005E-03 Eh
 * total energy  :   -31.5500491 Eh     change       -0.2266717E-03 Eh
 * total energy  :   -31.5502846 Eh     change       -0.2354802E-03 Eh
 * total energy  :   -31.5505719 Eh     change       -0.2873092E-03 Eh
 * total energy  :   -31.5561067 Eh     change       -0.1607914E-06 Eh
 * total energy  :   -31.5561069 Eh     change       -0.1487226E-06 Eh
 * total energy  :   -31.5561070 Eh     change       -0.1343849E-06 Eh
 * total energy  :   -31.5561071 Eh     change       -0.1255726E-06 Eh
 * total energy  :   -31.5561073 Eh     change       -0.1149122E-06 Eh
 * total energy  :   -31.5561074 Eh     change       -0.1083631E-06 Eh
 * total energy  :   -31.5561075 Eh     change       -0.1006452E-06 Eh
 * total energy  :   -31.5561076 Eh     change       -0.9542526E-07 Eh
 * total energy  :   -31.5561076 Eh     change       -0.8271002E-09 Eh
   *** GEOMETRY OPTIMIZATION CONVERGED AFTER 260 ITERATIONS ***

 final structure:
================
26
 xtb: 6.7.0 (08769fc)
P            1.68904058415944        0.21170798040616       -3.04360012103752
C            1.08567206898022       -0.03048203039111       -1.29344130929233
H            1.92735462507201        0.20895856767643       -0.63721828979671
H            0.27246696283805        0.66350605663768       -1.06451418955528
C            0.65012200425329       -1.47037504332756       -1.05951232437412
H            1.46346688265996       -2.15486273297859       -1.29296107223467
H           -0.19747253730286       -1.72226981486220       -1.69497489409705
H            0.36027955305294       -1.62028191255433       -0.02063561850072
C            0.13386028320416       -0.12595144964929       -3.97029928988384
C            0.24856607509582       -0.89220146008010       -5.12492152319491
C           -1.12113070283902        0.33868605849750       -3.59381973059932
C           -0.86397267468687       -1.18707307911504       -5.89230693009389
C           -2.23426794995451        0.04174612384926       -4.35842852100835
C           -2.10921513052542       -0.71989744994781       -5.50877929572873
H            1.22431898341898       -1.25685279867028       -5.41521253420128
H           -1.24006618494810        0.93284113468204       -2.69894108961305
H           -0.76092367182220       -1.78250224578813       -6.78803622635256
H           -3.20585175048796        0.40637236384218       -4.05577382013172
H           -2.98196572763833       -0.94876884180488       -6.10290985481647
C            1.61581100617815        2.07715778237492       -3.12142227890673
H            1.68113246147245        2.34223029063739       -4.18089683289728
H            0.65225837846342        2.43107279307044       -2.74449833382971
C            2.76337514055956        2.72281949285147       -2.35693787392302
H            3.71846469059563        2.34522041025790       -2.71668603812501
H            2.69072209759356        2.50800354537742       -1.29290844316258
H            2.74857953261054        3.80358625900724       -2.48892556464448

          :  Hamiltonian                  GFN2-xTB          :
         :: gradient norm              0.000023462081 Eh/a0 ::
         :: HOMO-LUMO gap              3.640724988190 eV    ::
         :: SCC energy               -32.076722801220 Eh    ::
         :: -> dispersion             -0.023679072356 Eh    ::
         :: repulsion energy           0.520615242101 Eh    ::

    * Orbital Energies and Occupations

         #    Occupation            Energy/Eh            Energy/eV
      -------------------------------------------------------------
         1        2.0000           -0.6578755             -17.9017
       ...           ...                  ...                  ...
        18        2.0000           -0.4773766             -12.9901
        19        2.0000           -0.4745204             -12.9124
        20        2.0000           -0.4630114             -12.5992
        21        2.0000           -0.4620955             -12.5743
        22        2.0000           -0.4534508             -12.3390
        23        2.0000           -0.4450088             -12.1093
        24        2.0000           -0.4376433             -11.9089
        25        2.0000           -0.4231606             -11.5148
        26        2.0000           -0.4184203             -11.3858
        27        2.0000           -0.4046597             -11.0113
        28        2.0000           -0.4043531             -11.0030
        29        2.0000           -0.3967891             -10.7972
        30        2.0000           -0.3669687              -9.9857 (HOMO)
        31                         -0.2331745              -6.3450 (LUMO)
        32                         -0.2229422              -6.0666
        33                         -0.1564250              -4.2565
        34                         -0.1498883              -4.0787
        35                         -0.0930365              -2.5317
        36                          0.0051001               0.1388
        37                          0.0554760               1.5096
        38                          0.0886283               2.4117
        39                          0.0952536               2.5920
        40                          0.1354870               3.6868
        41                          0.1378482               3.7510
       ...                                ...                  ...
        64                          0.7864012              21.3991
      -------------------------------------------------------------
                  HL-Gap            0.1337942 Eh            3.6407 eV

     #   Z          covCN         q      C6AA      α(0)
     1  15 P        3.045    -0.116   165.504    23.111
     2   6 C        3.748    -0.045    21.445     6.605
     3   1 H        0.926     0.039     2.463     2.454
     4   1 H        0.925     0.042     2.427     2.436
     5   6 C        3.819    -0.096    22.314     6.723
     6   1 H        0.925     0.041     2.436     2.441
     7   1 H        0.925     0.036     2.507     2.476
     8   1 H        0.925     0.032     2.556     2.500
     9   6 C        2.916     0.008    27.844     8.653
    10   6 C        3.017    -0.030    28.737     8.793
    11   6 C        2.960    -0.028    28.709     8.788
    12   6 C        2.918    -0.030    28.740     8.791
    13   6 C        2.919    -0.031    28.781     8.798
    14   6 C        2.920    -0.029    28.732     8.790
    15   1 H        0.925     0.040     2.455     2.450
    16   1 H        0.926     0.032     2.555     2.500
    17   1 H        0.926     0.030     2.581     2.512
    18   1 H        0.926     0.028     2.612     2.527
    19   1 H        0.926     0.029     2.596     2.520
    20   6 C        3.748    -0.046    21.471     6.609
    21   1 H        0.926     0.038     2.469     2.457
    22   1 H        0.925     0.043     2.413     2.429
    23   6 C        3.811    -0.098    22.356     6.730
    24   1 H        0.925     0.042     2.423     2.434
    25   1 H        0.925     0.037     2.492     2.469
    26   1 H        0.925     0.034     2.537     2.491

Wiberg/Mayer (AO) data.
largest (>0.10) Wiberg bond orders for each atom

     #   Z sym  total        # sym  WBO       # sym  WBO       # sym  WBO
 ---------------------------------------------------------------------------
     1  15 P    3.346 --     2 C    1.028    20 C    1.021     9 C    1.006
     2   6 C    3.994 --     1 P    1.028     5 C    1.016     3 H    0.957
                             4 H    0.950
     3   1 H    0.998 --     2 C    0.957
     4   1 H    0.998 --     2 C    0.950
     5   6 C    3.997 --     2 C    1.016     8 H    0.985     6 H    0.984
                             7 H    0.984
     6   1 H    0.998 --     5 C    0.984
     7   1 H    0.999 --     5 C    0.984
     8   1 H    0.999 --     5 C    0.985
     9   6 C    3.983 --    10 C    1.408    11 C    1.400     1 P    1.006
                            14 C    0.108
    10   6 C    3.991 --    12 C    1.443     9 C    1.408    15 H    0.964
                            13 C    0.108
    11   6 C    3.992 --    13 C    1.449     9 C    1.400    16 H    0.961
                            12 C    0.110
    12   6 C    3.992 --    10 C    1.443    14 C    1.440    17 H    0.970
                            11 C    0.110
    13   6 C    3.993 --    11 C    1.449    14 C    1.433    18 H    0.970
                            10 C    0.108
    14   6 C    3.990 --    12 C    1.440    13 C    1.433    19 H    0.971
                             9 C    0.108
    15   1 H    0.998 --    10 C    0.964
    16   1 H    0.999 --    11 C    0.961
    17   1 H    0.999 --    12 C    0.970
    18   1 H    0.999 --    13 C    0.970
    19   1 H    0.998 --    14 C    0.971
    20   6 C    3.995 --     1 P    1.021    23 C    1.016    21 H    0.959
                            22 H    0.951
    21   1 H    0.998 --    20 C    0.959
    22   1 H    0.998 --    20 C    0.951
    23   6 C    3.996 --    20 C    1.016    25 H    0.985    24 H    0.985
                            26 H    0.984
    24   1 H    0.998 --    23 C    0.985
    25   1 H    0.999 --    23 C    0.985
    26   1 H    0.998 --    23 C    0.984
 ---------------------------------------------------------------------------

molecular dipole:
                 x           y           z       tot (Debye)
 q only:       -0.135       0.156       0.153
   full:       -0.485       0.341       0.253       1.639

 projected vibrational frequencies (cm⁻¹)
eigval :       -0.00    -0.00     0.00     0.00     0.00     0.00
eigval :       23.12    54.02    72.01    94.30   143.68   167.74
eigval :      203.27   215.82   224.36   265.66   314.24   328.74
eigval :      363.20   425.52   450.69   586.05   655.62   660.24
eigval :      685.96   701.93   739.17   754.46   778.03   874.78
eigval :      898.90   926.61   932.73   968.74   974.90   997.71
eigval :     1013.15  1016.95  1071.42  1076.74  1083.10  1117.53
eigval :     1121.37  1181.65  1199.07  1220.40  1225.56  1250.37
eigval :     1255.57  1278.13  1315.60  1409.47  1411.33  1423.39
eigval :     1446.23  1451.17  1459.00  1497.31  1498.50  1501.87
eigval :     1502.28  1579.88  1589.65  2929.07  2934.46  2946.67
eigval :     2949.89  3013.21  3014.11  3020.18  3026.85  3029.55
eigval :     3033.81  3063.41  3063.98  3072.11  3077.52  3087.88

   temp. (K)  partition function   enthalpy   heat capacity  entropy
                                   cal/mol     cal/K/mol   cal/K/mol   J/K/mol
 298.15  VIB  0.282E+05             6230.405     39.282     38.583
         ROT  0.122E+07              888.752      2.981     30.824
         INT  0.343E+11             7119.157     42.262     69.408
         TR   0.207E+28             1481.254      4.968     41.214
         TOT                        8600.4114    47.2306   110.6213   462.8396

       T/K    H(0)-H(T)+PV         H(T)/Eh          T*S/Eh         G(T)/Eh
   ------------------------------------------------------------------------
    298.15    0.137056E-01    0.232277E+00    0.525598E-01    0.179717E+00
   ------------------------------------------------------------------------

         :::::::::::::::::::::::::::::::::::::::::::::::::::::
         ::                  THERMODYNAMIC                  ::
         :::::::::::::::::::::::::::::::::::::::::::::::::::::
         :: total free energy         -31.376390656570 Eh   ::
         ::.................................................::
         :: total energy              -31.556107559119 Eh   ::
         :: zero point energy           0.218571028170 Eh   ::
         :: G(RRHO) w/o ZPVE           -0.038854125621 Eh   ::
         :: G(RRHO) contrib.            0.179716902549 Eh   ::
         :::::::::::::::::::::::::::::::::::::::::::::::::::::

           -------------------------------------------------
          | TOTAL ENERGY              -31.556107559119 Eh   |
          | TOTAL ENTHALPY            -31.323830903005 Eh   |
          | TOTAL FREE ENERGY         -31.376390656570 Eh   |
          | GRADIENT NORM               0.000023461943 Eh/α |
          | HOMO-LUMO GAP               3.640725061854 eV   |
           -------------------------------------------------

 * finished run on 2025/07/14 at 11:32:52.924
