   * xtb version 6.7.0 (08769fc) compiled by 'albert@albert-system' on 2024-03-04

   ID    Z sym.   atoms
    1   15 P      1
    2    6 C      2, 5, 9-14, 20, 23
    3    1 H      3, 4, 6-8, 15-19, 21, 22, 24-26

          program call               : /home/minenky/programs/xtb/xtb-dist/bin/xtb m1_00_PEt2Ph-PBE0-D3-TZ-uniMM_44.xyz --charge 0 --T --ohess extreme --cycles 5000 --acc 0.01 --iterations 5000
          :  Hamiltonian                  GFN2-xTB          :
 * total energy  :   -31.5398138 Eh     change       -0.1065814E-12 Eh
 * total energy  :   -31.5474868 Eh     change       -0.7672999E-02 Eh
 * total energy  :   -31.5493643 Eh     change       -0.1877549E-02 Eh
 * total energy  :   -31.5506139 Eh     change       -0.1249616E-02 Eh
 * total energy  :   -31.5513383 Eh     change       -0.7243475E-03 Eh
 * total energy  :   -31.5519130 Eh     change       -0.5747659E-03 Eh
 * total energy  :   -31.5524358 Eh     change       -0.5228109E-03 Eh
 * total energy  :   -31.5529345 Eh     change       -0.4986262E-03 Eh
 * total energy  :   -31.5534014 Eh     change       -0.4669076E-03 Eh
 * total energy  :   -31.5538459 Eh     change       -0.4444859E-03 Eh
 * total energy  :   -31.5561094 Eh     change       -0.1212911E-06 Eh
 * total energy  :   -31.5561096 Eh     change       -0.1556917E-06 Eh
 * total energy  :   -31.5561098 Eh     change       -0.1844514E-06 Eh
 * total energy  :   -31.5561099 Eh     change       -0.1436212E-06 Eh
 * total energy  :   -31.5561100 Eh     change       -0.9628034E-07 Eh
 * total energy  :   -31.5561101 Eh     change       -0.7043847E-07 Eh
 * total energy  :   -31.5561101 Eh     change       -0.5611094E-07 Eh
 * total energy  :   -31.5561101 Eh     change       -0.6301367E-08 Eh
 * total energy  :   -31.5561101 Eh     change       -0.4836618E-08 Eh
   *** GEOMETRY OPTIMIZATION CONVERGED AFTER 68 ITERATIONS ***

 final structure:
================
26
 xtb: 6.7.0 (08769fc)
P            1.55777379725566       -0.09708931523849       -2.78643814377386
C            1.75367621447122        0.55862697409223       -4.52499851057601
H            1.90324322005499        1.64153827264229       -4.50496473869963
H            2.66288345969501        0.09990136396906       -4.92492035039280
C            0.56427438588218        0.19663983736815       -5.40409343931681
H           -0.34296898678890        0.68041383552000       -5.04842478042491
H            0.40182114280918       -0.87934506238191       -5.39798193827176
H            0.73955707252122        0.51265186505443       -6.43128327718225
C            3.10017310615344        0.61827108840282       -2.07850666831788
C            3.41702948739275        1.97179046975796       -2.09508127837696
C            3.99370493387357       -0.27426322803902       -1.49678718015689
C            4.60285209586770        2.41853125611112       -1.54186384064354
C            5.18133214827247        0.17141726662415       -0.94489327518815
C            5.48764310280062        1.52109703712041       -0.96666415956269
H            2.73909198110924        2.68833306936975       -2.53668047595442
H            3.74520027349399       -1.32654343682476       -1.48075429957155
H            4.83900525226360        3.47326802298695       -1.55881221181639
H            5.86731841491614       -0.53275962801676       -0.49651205949483
H            6.41277064089799        1.87525693786518       -0.53563768682326
C            0.31150547040601        1.13771823520865       -2.14766081544296
H            0.54884348588095        2.14451178054206       -2.50168273646631
H           -0.65704037129910        0.85174171588051       -2.56764959852908
C            0.23918417355959        1.10298351509300       -0.62737229619117
H            1.19214823384424        1.39964591685513       -0.19195008211437
H            0.00757421279109        0.09721090576546       -0.28196434131007
H           -0.53287694812522        1.77923330427184       -0.26357881540154

          :  Hamiltonian                  GFN2-xTB          :
         :: gradient norm              0.000045702825 Eh/a0 ::
         :: HOMO-LUMO gap              3.638522030224 eV    ::
         :: SCC energy               -32.076722223639 Eh    ::
         :: -> dispersion             -0.023677714248 Eh    ::
         :: repulsion energy           0.520612082366 Eh    ::

    * Orbital Energies and Occupations

         #    Occupation            Energy/Eh            Energy/eV
      -------------------------------------------------------------
         1        2.0000           -0.6578539             -17.9011
       ...           ...                  ...                  ...
        18        2.0000           -0.4774287             -12.9915
        19        2.0000           -0.4745338             -12.9127
        20        2.0000           -0.4629508             -12.5975
        21        2.0000           -0.4620658             -12.5735
        22        2.0000           -0.4534696             -12.3395
        23        2.0000           -0.4449045             -12.1065
        24        2.0000           -0.4376198             -11.9082
        25        2.0000           -0.4232334             -11.5168
        26        2.0000           -0.4184321             -11.3861
        27        2.0000           -0.4045989             -11.0097
        28        2.0000           -0.4044157             -11.0047
        29        2.0000           -0.3968068             -10.7977
        30        2.0000           -0.3669801              -9.9860 (HOMO)
        31                         -0.2332668              -6.3475 (LUMO)
        32                         -0.2229795              -6.0676
        33                         -0.1564106              -4.2561
        34                         -0.1498164              -4.0767
        35                         -0.0930259              -2.5314
        36                          0.0047012               0.1279
        37                          0.0553677               1.5066
        38                          0.0889063               2.4193
        39                          0.0954200               2.5965
        40                          0.1355938               3.6897
        41                          0.1377791               3.7492
       ...                                ...                  ...
        64                          0.7863897              21.3988
      -------------------------------------------------------------
                  HL-Gap            0.1337132 Eh            3.6385 eV

     #   Z          covCN         q      C6AA      α(0)
     1  15 P        3.046    -0.116   165.504    23.111
     2   6 C        3.748    -0.046    21.472     6.609
     3   1 H        0.925     0.043     2.413     2.429
     4   1 H        0.926     0.038     2.469     2.457
     5   6 C        3.812    -0.098    22.355     6.730
     6   1 H        0.925     0.037     2.493     2.469
     7   1 H        0.925     0.042     2.423     2.434
     8   1 H        0.925     0.033     2.538     2.491
     9   6 C        2.916     0.008    27.844     8.653
    10   6 C        2.960    -0.028    28.705     8.788
    11   6 C        3.016    -0.030    28.736     8.793
    12   6 C        2.919    -0.031    28.780     8.797
    13   6 C        2.918    -0.030    28.741     8.791
    14   6 C        2.920    -0.029    28.731     8.790
    15   1 H        0.926     0.032     2.559     2.501
    16   1 H        0.925     0.040     2.454     2.450
    17   1 H        0.926     0.028     2.612     2.527
    18   1 H        0.926     0.030     2.580     2.512
    19   1 H        0.926     0.029     2.596     2.519
    20   6 C        3.748    -0.045    21.446     6.605
    21   1 H        0.925     0.042     2.425     2.435
    22   1 H        0.926     0.039     2.464     2.454
    23   6 C        3.820    -0.096    22.314     6.723
    24   1 H        0.925     0.036     2.509     2.477
    25   1 H        0.925     0.041     2.435     2.440
    26   1 H        0.925     0.032     2.556     2.500

Wiberg/Mayer (AO) data.
largest (>0.10) Wiberg bond orders for each atom

     #   Z sym  total        # sym  WBO       # sym  WBO       # sym  WBO
 ---------------------------------------------------------------------------
     1  15 P    3.345 --    20 C    1.027     2 C    1.022     9 C    1.006
     2   6 C    3.995 --     1 P    1.022     5 C    1.016     4 H    0.959
                             3 H    0.951
     3   1 H    0.998 --     2 C    0.951
     4   1 H    0.998 --     2 C    0.959
     5   6 C    3.996 --     2 C    1.016     6 H    0.985     7 H    0.985
                             8 H    0.984
     6   1 H    0.999 --     5 C    0.985
     7   1 H    0.998 --     5 C    0.985
     8   1 H    0.998 --     5 C    0.984
     9   6 C    3.983 --    11 C    1.408    10 C    1.400     1 P    1.006
                            14 C    0.108
    10   6 C    3.992 --    12 C    1.450     9 C    1.400    15 H    0.961
                            13 C    0.111
    11   6 C    3.991 --    13 C    1.443     9 C    1.408    16 H    0.964
                            12 C    0.108
    12   6 C    3.993 --    10 C    1.450    14 C    1.432    17 H    0.970
                            11 C    0.108
    13   6 C    3.992 --    11 C    1.443    14 C    1.441    18 H    0.970
                            10 C    0.111
    14   6 C    3.989 --    13 C    1.441    12 C    1.432    19 H    0.971
                             9 C    0.108
    15   1 H    0.999 --    10 C    0.961
    16   1 H    0.998 --    11 C    0.964
    17   1 H    0.999 --    12 C    0.970
    18   1 H    0.999 --    13 C    0.970
    19   1 H    0.998 --    14 C    0.971
    20   6 C    3.993 --     1 P    1.027    23 C    1.016    22 H    0.957
                            21 H    0.950
    21   1 H    0.998 --    20 C    0.950
    22   1 H    0.998 --    20 C    0.957
    23   6 C    3.997 --    20 C    1.016    26 H    0.985    25 H    0.984
                            24 H    0.984
    24   1 H    0.999 --    23 C    0.984
    25   1 H    0.998 --    23 C    0.984
    26   1 H    0.999 --    23 C    0.985
 ---------------------------------------------------------------------------

molecular dipole:
                 x           y           z       tot (Debye)
 q only:       -0.059       0.235      -0.081
   full:        0.032       0.630      -0.130       1.638

 projected vibrational frequencies (cm⁻¹)
eigval :       -0.00    -0.00     0.00     0.00     0.00     0.00
eigval :       21.73    52.35    71.74    94.81   142.22   166.88
eigval :      203.44   215.67   224.48   266.04   312.70   329.02
eigval :      363.35   425.89   450.36   586.08   655.58   660.40
eigval :      686.30   701.64   739.12   754.45   777.79   874.81
eigval :      898.96   926.65   932.76   968.76   974.89   997.45
eigval :     1013.14  1016.92  1071.35  1076.74  1083.14  1117.40
eigval :     1121.39  1181.65  1198.90  1220.60  1225.81  1250.21
eigval :     1255.45  1278.24  1315.54  1409.41  1411.26  1423.36
eigval :     1445.70  1450.54  1458.56  1497.35  1498.56  1501.91
eigval :     1502.30  1579.82  1589.67  2929.89  2935.36  2946.90
eigval :     2950.11  3013.28  3014.04  3020.07  3026.78  3029.59
eigval :     3033.67  3063.19  3064.00  3071.85  3077.39  3087.87

   temp. (K)  partition function   enthalpy   heat capacity  entropy
                                   cal/mol     cal/K/mol   cal/K/mol   J/K/mol
 298.15  VIB  0.311E+05             6237.141     39.245     38.666
         ROT  0.122E+07              888.752      2.981     30.823
         INT  0.378E+11             7125.893     42.226     69.489
         TR   0.207E+28             1481.254      4.968     41.214
         TOT                        8607.1472    47.1942   110.7025   463.1794

       T/K    H(0)-H(T)+PV         H(T)/Eh          T*S/Eh         G(T)/Eh
   ------------------------------------------------------------------------
    298.15    0.137164E-01    0.232273E+00    0.525983E-01    0.179675E+00
   ------------------------------------------------------------------------

         :::::::::::::::::::::::::::::::::::::::::::::::::::::
         ::                  THERMODYNAMIC                  ::
         :::::::::::::::::::::::::::::::::::::::::::::::::::::
         :: total free energy         -31.376435557825 Eh   ::
         ::.................................................::
         :: total energy              -31.556110141273 Eh   ::
         :: zero point energy           0.218556568865 Eh   ::
         :: G(RRHO) w/o ZPVE           -0.038881985418 Eh   ::
         :: G(RRHO) contrib.            0.179674583447 Eh   ::
         :::::::::::::::::::::::::::::::::::::::::::::::::::::

           -------------------------------------------------
          | TOTAL ENERGY              -31.556110141273 Eh   |
          | TOTAL ENTHALPY            -31.323837210296 Eh   |
          | TOTAL FREE ENERGY         -31.376435557825 Eh   |
          | GRADIENT NORM               0.000045700260 Eh/α |
          | HOMO-LUMO GAP               3.638521992292 eV   |
           -------------------------------------------------

 * finished run on 2025/07/14 at 11:33:08.718
