   * xtb version 6.7.0 (08769fc) compiled by 'albert@albert-system' on 2024-03-04

   ID    Z sym.   atoms
    1   15 P      1
    2    6 C      2, 5, 9-14, 20, 23
    3    1 H      3, 4, 6-8, 15-19, 21, 22, 24-26

          program call               : /home/minenky/programs/xtb/xtb-dist/bin/xtb m1_00_PEt2Ph-PBE0-D3-TZ-uniMM_0.xyz --charge 0 --T --ohess extreme --cycles 5000 --acc 0.01 --iterations 5000
          :  Hamiltonian                  GFN2-xTB          :
 * total energy  :   -31.5543346 Eh     change       -0.1989520E-12 Eh
 * total energy  :   -31.5550849 Eh     change       -0.7503415E-03 Eh
 * total energy  :   -31.5552247 Eh     change       -0.1397228E-03 Eh
 * total energy  :   -31.5552482 Eh     change       -0.2355246E-04 Eh
 * total energy  :   -31.5552658 Eh     change       -0.1762213E-04 Eh
 * total energy  :   -31.5552817 Eh     change       -0.1582350E-04 Eh
 * total energy  :   -31.5553168 Eh     change       -0.3510454E-04 Eh
 * total energy  :   -31.5553497 Eh     change       -0.3294464E-04 Eh
 * total energy  :   -31.5553701 Eh     change       -0.2037262E-04 Eh
 * total energy  :   -31.5554113 Eh     change       -0.4118584E-04 Eh
 * total energy  :   -31.5556589 Eh     change       -0.1574185E-05 Eh
 * total energy  :   -31.5556602 Eh     change       -0.1261099E-05 Eh
 * total energy  :   -31.5556610 Eh     change       -0.8503648E-06 Eh
 * total energy  :   -31.5556616 Eh     change       -0.5477109E-06 Eh
 * total energy  :   -31.5556619 Eh     change       -0.3876046E-06 Eh
 * total energy  :   -31.5556623 Eh     change       -0.3360263E-06 Eh
 * total energy  :   -31.5556626 Eh     change       -0.3387593E-06 Eh
 * total energy  :   -31.5556630 Eh     change       -0.3578187E-06 Eh
 * total energy  :   -31.5556630 Eh     change       -0.2987804E-08 Eh
   *** GEOMETRY OPTIMIZATION CONVERGED AFTER 44 ITERATIONS ***

 final structure:
================
26
 xtb: 6.7.0 (08769fc)
P            1.63431888414809       -0.42802357692650       -3.00537889269416
C            3.13592420735676       -0.97518078012218       -2.04766936467649
H            3.90791071915972       -0.22334354870720       -2.23810432203866
H            2.93489207791250       -0.98985144499771       -0.97440374528092
C            3.62162202342209       -2.33688197477448       -2.53088158152298
H            3.87128193111805       -2.29275140616216       -3.58899292377017
H            2.85062093824596       -3.09424403441962       -2.40201441358368
H            4.50793767853388       -2.64774317748382       -1.97939540505694
C            0.24934455640388       -1.19189916675051       -2.07220793349703
C           -1.02693039463444       -0.84185434617231       -2.50955798717202
C            0.37142020115356       -2.10927089573347       -1.03651499039367
C           -2.15289562214351       -1.36317278320289       -1.90360589483761
C           -0.75781339981289       -2.63622113099460       -0.43263720664269
C           -2.02028467894161       -2.26255527157224       -0.85776232752615
H           -1.12692874186381       -0.15155231549709       -3.33686093338491
H            1.34333041619348       -2.42180103096027       -0.68637949727249
H           -3.13542462620505       -1.07496951542765       -2.24896394292683
H           -0.64837679307480       -3.34445392986844        0.37664137956315
H           -2.89757820951618       -2.67552435722844       -0.38171024732580
C            1.46313099666055        1.31003512301157       -2.33806944111662
H            2.29372282491616        1.88422038499431       -2.75904378444845
H            0.54210512580450        1.70855013010494       -2.77288255691494
C            1.42535596909346        1.46229228115566       -0.82372879620686
H            2.37953094786911        1.19618175949902       -0.37593865569229
H            0.64990239407476        0.83181273789152       -0.39205818967866
H            1.20909557412552        2.49733327034432       -0.56297734590171

          :  Hamiltonian                  GFN2-xTB          :
         :: gradient norm              0.000041203226 Eh/a0 ::
         :: HOMO-LUMO gap              3.648300646261 eV    ::
         :: SCC energy               -32.076678935300 Eh    ::
         :: -> dispersion             -0.024323306781 Eh    ::
         :: repulsion energy           0.521015958755 Eh    ::

    * Orbital Energies and Occupations

         #    Occupation            Energy/Eh            Energy/eV
      -------------------------------------------------------------
         1        2.0000           -0.6587581             -17.9257
       ...           ...                  ...                  ...
        18        2.0000           -0.4754587             -12.9379
        19        2.0000           -0.4741817             -12.9031
        20        2.0000           -0.4670892             -12.7101
        21        2.0000           -0.4610112             -12.5448
        22        2.0000           -0.4564805             -12.4215
        23        2.0000           -0.4434888             -12.0679
        24        2.0000           -0.4381509             -11.9227
        25        2.0000           -0.4238788             -11.5343
        26        2.0000           -0.4164264             -11.3315
        27        2.0000           -0.4070416             -11.0762
        28        2.0000           -0.4029604             -10.9651
        29        2.0000           -0.3994721             -10.8702
        30        2.0000           -0.3641589              -9.9093 (HOMO)
        31                         -0.2300863              -6.2610 (LUMO)
        32                         -0.2216246              -6.0307
        33                         -0.1543293              -4.1995
        34                         -0.1503016              -4.0899
        35                         -0.0931436              -2.5346
        36                          0.0034808               0.0947
        37                          0.0493959               1.3441
        38                          0.0996296               2.7111
        39                          0.1120219               3.0483
        40                          0.1211921               3.2978
        41                          0.1308023               3.5593
       ...                                ...                  ...
        64                          0.7779550              21.1692
      -------------------------------------------------------------
                  HL-Gap            0.1340726 Eh            3.6483 eV

     #   Z          covCN         q      C6AA      α(0)
     1  15 P        3.031    -0.115   165.453    23.107
     2   6 C        3.748    -0.045    21.452     6.606
     3   1 H        0.926     0.040     2.447     2.446
     4   1 H        0.925     0.046     2.368     2.407
     5   6 C        3.822    -0.097    22.341     6.726
     6   1 H        0.925     0.041     2.434     2.440
     7   1 H        0.925     0.039     2.464     2.455
     8   1 H        0.925     0.031     2.569     2.506
     9   6 C        2.915     0.012    27.743     8.637
    10   6 C        3.034    -0.030    28.716     8.790
    11   6 C        2.955    -0.033    28.817     8.805
    12   6 C        2.918    -0.030    28.748     8.792
    13   6 C        2.920    -0.032    28.788     8.799
    14   6 C        2.920    -0.031    28.773     8.796
    15   1 H        0.925     0.035     2.521     2.483
    16   1 H        0.926     0.036     2.506     2.476
    17   1 H        0.926     0.029     2.606     2.524
    18   1 H        0.926     0.027     2.629     2.536
    19   1 H        0.926     0.028     2.617     2.530
    20   6 C        3.747    -0.046    21.460     6.607
    21   1 H        0.926     0.040     2.449     2.447
    22   1 H        0.926     0.042     2.421     2.433
    23   6 C        3.780    -0.096    22.347     6.734
    24   1 H        0.925     0.037     2.487     2.466
    25   1 H        0.925     0.038     2.471     2.458
    26   1 H        0.925     0.033     2.540     2.492

Wiberg/Mayer (AO) data.
largest (>0.10) Wiberg bond orders for each atom

     #   Z sym  total        # sym  WBO       # sym  WBO       # sym  WBO
 ---------------------------------------------------------------------------
     1  15 P    3.375 --     2 C    1.030     9 C    1.017    20 C    1.012
     2   6 C    3.995 --     1 P    1.030     5 C    1.016     3 H    0.956
                             4 H    0.949
     3   1 H    0.998 --     2 C    0.956
     4   1 H    0.998 --     2 C    0.949
     5   6 C    3.997 --     2 C    1.016     6 H    0.985     8 H    0.985
                             7 H    0.983
     6   1 H    0.998 --     5 C    0.985
     7   1 H    0.998 --     5 C    0.983
     8   1 H    0.999 --     5 C    0.985
     9   6 C    3.982 --    11 C    1.404    10 C    1.390     1 P    1.017
                            14 C    0.106
    10   6 C    3.992 --    12 C    1.457     9 C    1.390    15 H    0.962
                            13 C    0.110
    11   6 C    3.993 --    13 C    1.439     9 C    1.404    16 H    0.961
                            12 C    0.107
    12   6 C    3.991 --    10 C    1.457    14 C    1.428    17 H    0.970
                            11 C    0.107
    13   6 C    3.993 --    14 C    1.442    11 C    1.439    18 H    0.970
                            10 C    0.110
    14   6 C    3.992 --    13 C    1.442    12 C    1.428    19 H    0.971
                             9 C    0.106
    15   1 H    0.999 --    10 C    0.962
    16   1 H    0.999 --    11 C    0.961
    17   1 H    0.999 --    12 C    0.970
    18   1 H    0.999 --    13 C    0.970
    19   1 H    0.998 --    14 C    0.971
    20   6 C    3.994 --     1 P    1.012    23 C    1.012    21 H    0.957
                            22 H    0.956
    21   1 H    0.998 --    20 C    0.957
    22   1 H    0.998 --    20 C    0.956
    23   6 C    3.997 --    20 C    1.012    24 H    0.985    26 H    0.983
                            25 H    0.983
    24   1 H    0.999 --    23 C    0.985
    25   1 H    0.999 --    23 C    0.983
    26   1 H    0.999 --    23 C    0.983
 ---------------------------------------------------------------------------

molecular dipole:
                 x           y           z       tot (Debye)
 q only:        0.149       0.119       0.254
   full:        0.119       0.156       0.625       1.664

 projected vibrational frequencies (cm⁻¹)
eigval :       -0.00    -0.00    -0.00    -0.00     0.00     0.00
eigval :       24.70    64.25    84.68   113.38   161.35   170.28
eigval :      201.61   222.56   248.05   262.17   315.12   361.13
eigval :      366.20   392.95   472.98   585.83   648.65   659.29
eigval :      679.08   690.53   736.48   760.64   769.41   872.90
eigval :      896.12   925.84   931.66   967.51   982.03   995.06
eigval :     1013.49  1017.29  1063.78  1077.74  1084.80  1115.17
eigval :     1123.33  1181.71  1203.76  1222.57  1230.89  1250.01
eigval :     1268.55  1280.17  1317.27  1407.77  1412.78  1421.44
eigval :     1448.81  1451.21  1462.04  1496.58  1499.48  1504.92
eigval :     1506.66  1578.23  1589.23  2936.12  2941.20  2951.51
eigval :     2955.09  3011.88  3012.19  3023.43  3025.10  3034.18
eigval :     3040.97  3054.13  3067.36  3074.37  3086.66  3093.39

   temp. (K)  partition function   enthalpy   heat capacity  entropy
                                   cal/mol     cal/K/mol   cal/K/mol   J/K/mol
 298.15  VIB  0.146E+05             6121.538     39.478     37.352
         ROT  0.115E+07              888.752      2.981     30.720
         INT  0.169E+11             7010.291     42.459     68.072
         TR   0.207E+28             1481.254      4.968     41.214
         TOT                        8491.5447    47.4267   109.2854   457.2503

       T/K    H(0)-H(T)+PV         H(T)/Eh          T*S/Eh         G(T)/Eh
   ------------------------------------------------------------------------
    298.15    0.135321E-01    0.232463E+00    0.519250E-01    0.180538E+00
   ------------------------------------------------------------------------

         :::::::::::::::::::::::::::::::::::::::::::::::::::::
         ::                  THERMODYNAMIC                  ::
         :::::::::::::::::::::::::::::::::::::::::::::::::::::
         :: total free energy         -31.375124573091 Eh   ::
         ::.................................................::
         :: total energy              -31.555662976545 Eh   ::
         :: zero point energy           0.218931308108 Eh   ::
         :: G(RRHO) w/o ZPVE           -0.038392904653 Eh   ::
         :: G(RRHO) contrib.            0.180538403454 Eh   ::
         :::::::::::::::::::::::::::::::::::::::::::::::::::::

           -------------------------------------------------
          | TOTAL ENERGY              -31.555662976545 Eh   |
          | TOTAL ENTHALPY            -31.323199530644 Eh   |
          | TOTAL FREE ENERGY         -31.375124573091 Eh   |
          | GRADIENT NORM               0.000041203069 Eh/α |
          | HOMO-LUMO GAP               3.648300665321 eV   |
           -------------------------------------------------

 * finished run on 2025/07/14 at 11:26:04.086
