   * xtb version 6.7.0 (08769fc) compiled by 'albert@albert-system' on 2024-03-04

   ID    Z sym.   atoms
    1   15 P      1
    2    6 C      2, 5, 9-14, 20, 23
    3    1 H      3, 4, 6-8, 15-19, 21, 22, 24-26

          program call               : /home/minenky/programs/xtb/xtb-dist/bin/xtb m1_00_PEt2Ph-PBE0-D3-TZ-uniMM_14.xyz --charge 0 --T --ohess extreme --cycles 5000 --acc 0.01 --iterations 5000
          :  Hamiltonian                  GFN2-xTB          :
 * total energy  :   -31.5502790 Eh     change        0.0000000E+00 Eh
 * total energy  :   -31.5541140 Eh     change       -0.3834978E-02 Eh
 * total energy  :   -31.5545545 Eh     change       -0.4405306E-03 Eh
 * total energy  :   -31.5547726 Eh     change       -0.2180292E-03 Eh
 * total energy  :   -31.5549746 Eh     change       -0.2020273E-03 Eh
 * total energy  :   -31.5551484 Eh     change       -0.1737899E-03 Eh
 * total energy  :   -31.5552763 Eh     change       -0.1279374E-03 Eh
 * total energy  :   -31.5553600 Eh     change       -0.8365548E-04 Eh
 * total energy  :   -31.5554370 Eh     change       -0.7706261E-04 Eh
 * total energy  :   -31.5555185 Eh     change       -0.8148576E-04 Eh
 * total energy  :   -31.5560013 Eh     change       -0.8228358E-06 Eh
 * total energy  :   -31.5560021 Eh     change       -0.8392915E-06 Eh
 * total energy  :   -31.5560029 Eh     change       -0.8055194E-06 Eh
 * total energy  :   -31.5560037 Eh     change       -0.7126162E-06 Eh
 * total energy  :   -31.5560043 Eh     change       -0.6008442E-06 Eh
 * total energy  :   -31.5560047 Eh     change       -0.4825279E-06 Eh
 * total energy  :   -31.5560051 Eh     change       -0.4076967E-06 Eh
 * total energy  :   -31.5560055 Eh     change       -0.3751255E-06 Eh
 * total energy  :   -31.5560055 Eh     change       -0.2979689E-08 Eh
   *** GEOMETRY OPTIMIZATION CONVERGED AFTER 68 ITERATIONS ***

 final structure:
================
26
 xtb: 6.7.0 (08769fc)
P            1.73137678035714       -0.20662764652259       -3.15300730134495
C            0.36710843319068       -1.47815273005016       -3.26021382332567
H            0.69157080381666       -2.34498744268604       -3.84184973738146
H            0.14604886149679       -1.80403758309728       -2.24008249205454
C           -0.88091699509341       -0.86904720935654       -3.88814554094215
H           -0.67907319368815       -0.53632996464825       -4.90453002264163
H           -1.21515628310138       -0.00971063970527       -3.31062709708116
H           -1.68865265112342       -1.59849156743290       -3.92122272099686
C            2.96673007111872       -1.11142418897205       -2.13278492369022
C            3.83057769296690       -0.33019277976267       -1.37183636425001
C            3.10152213307379       -2.49416420763619       -2.09578083603922
C            4.81536342600524       -0.91395810354441       -0.59604377242556
C            4.08179592436070       -3.07865834887552       -1.31418112724952
C            4.94147761317967       -2.29235333699360       -0.56530676923476
H            3.72053831599888        0.74555946557720       -1.39575310063492
H            2.44293622024978       -3.12440207087824       -2.67519047371078
H            5.48253537154169       -0.29546956090440       -0.01298370975527
H            4.17709644997034       -4.15514799542884       -1.29072097906203
H            5.70646276204883       -2.75427921393616        0.04170847091845
C            2.52273401930858       -0.52500440283695       -4.81619754159734
H            2.74951846473174       -1.59132052525686       -4.91167121738597
H            1.78864629457641       -0.25623721480691       -5.58070095004202
C            3.78505190792239        0.30611355958082       -4.99330819375222
H            4.52402981029117        0.04176623985414       -4.23845746057424
H            3.55961688440078        1.36604838998782       -4.89318541127405
H            4.22114888240005        0.13725207833199       -5.97662990447187

          :  Hamiltonian                  GFN2-xTB          :
         :: gradient norm              0.000044309243 Eh/a0 ::
         :: HOMO-LUMO gap              3.675576011860 eV    ::
         :: SCC energy               -32.076502553293 Eh    ::
         :: -> dispersion             -0.023589113957 Eh    ::
         :: repulsion energy           0.520497026746 Eh    ::

    * Orbital Energies and Occupations

         #    Occupation            Energy/Eh            Energy/eV
      -------------------------------------------------------------
         1        2.0000           -0.6581319             -17.9087
       ...           ...                  ...                  ...
        18        2.0000           -0.4771930             -12.9851
        19        2.0000           -0.4744041             -12.9092
        20        2.0000           -0.4634340             -12.6107
        21        2.0000           -0.4617567             -12.5650
        22        2.0000           -0.4521774             -12.3044
        23        2.0000           -0.4448563             -12.1052
        24        2.0000           -0.4383829             -11.9290
        25        2.0000           -0.4229746             -11.5097
        26        2.0000           -0.4180496             -11.3757
        27        2.0000           -0.4047520             -11.0139
        28        2.0000           -0.4038907             -10.9904
        29        2.0000           -0.3969538             -10.8017
        30        2.0000           -0.3672006              -9.9920 (HOMO)
        31                         -0.2321257              -6.3165 (LUMO)
        32                         -0.2226417              -6.0584
        33                         -0.1558886              -4.2419
        34                         -0.1518448              -4.1319
        35                         -0.0928288              -2.5260
        36                         -0.0023691              -0.0645
        37                          0.0599016               1.6300
        38                          0.0925107               2.5173
        39                          0.1115026               3.0341
        40                          0.1314104               3.5759
        41                          0.1364655               3.7134
       ...                                ...                  ...
        64                          0.7814615              21.2647
      -------------------------------------------------------------
                  HL-Gap            0.1350749 Eh            3.6756 eV

     #   Z          covCN         q      C6AA      α(0)
     1  15 P        3.058    -0.113   165.365    23.101
     2   6 C        3.748    -0.048    21.496     6.613
     3   1 H        0.925     0.041     2.433     2.439
     4   1 H        0.925     0.040     2.444     2.445
     5   6 C        3.824    -0.098    22.349     6.727
     6   1 H        0.925     0.036     2.498     2.472
     7   1 H        0.925     0.042     2.420     2.433
     8   1 H        0.925     0.033     2.548     2.496
     9   6 C        2.916     0.008    27.844     8.653
    10   6 C        3.021    -0.030    28.729     8.792
    11   6 C        2.959    -0.030    28.755     8.795
    12   6 C        2.918    -0.030    28.750     8.793
    13   6 C        2.919    -0.031    28.767     8.795
    14   6 C        2.920    -0.030    28.738     8.791
    15   1 H        0.925     0.039     2.461     2.453
    16   1 H        0.926     0.032     2.559     2.501
    17   1 H        0.926     0.030     2.589     2.516
    18   1 H        0.926     0.028     2.613     2.528
    19   1 H        0.926     0.029     2.600     2.522
    20   6 C        3.748    -0.045    21.444     6.605
    21   1 H        0.925     0.042     2.423     2.434
    22   1 H        0.925     0.040     2.444     2.445
    23   6 C        3.817    -0.097    22.339     6.727
    24   1 H        0.925     0.036     2.497     2.471
    25   1 H        0.925     0.042     2.425     2.435
    26   1 H        0.925     0.033     2.551     2.497

Wiberg/Mayer (AO) data.
largest (>0.10) Wiberg bond orders for each atom

     #   Z sym  total        # sym  WBO       # sym  WBO       # sym  WBO
 ---------------------------------------------------------------------------
     1  15 P    3.345 --     2 C    1.028    20 C    1.018     9 C    1.009
     2   6 C    3.995 --     1 P    1.028     5 C    1.016     4 H    0.959
                             3 H    0.952
     3   1 H    0.998 --     2 C    0.952
     4   1 H    0.998 --     2 C    0.959
     5   6 C    3.996 --     2 C    1.016     7 H    0.985     8 H    0.985
                             6 H    0.984
     6   1 H    0.999 --     5 C    0.984
     7   1 H    0.998 --     5 C    0.985
     8   1 H    0.998 --     5 C    0.985
     9   6 C    3.983 --    10 C    1.404    11 C    1.401     1 P    1.009
                            14 C    0.107
    10   6 C    3.991 --    12 C    1.445     9 C    1.404    15 H    0.964
                            13 C    0.109
    11   6 C    3.993 --    13 C    1.447     9 C    1.401    16 H    0.963
                            12 C    0.110
    12   6 C    3.992 --    10 C    1.445    14 C    1.438    17 H    0.970
                            11 C    0.110
    13   6 C    3.993 --    11 C    1.447    14 C    1.435    18 H    0.970
                            10 C    0.109
    14   6 C    3.991 --    12 C    1.438    13 C    1.435    19 H    0.971
                             9 C    0.107
    15   1 H    0.998 --    10 C    0.964
    16   1 H    0.999 --    11 C    0.963
    17   1 H    0.999 --    12 C    0.970
    18   1 H    0.999 --    13 C    0.970
    19   1 H    0.998 --    14 C    0.971
    20   6 C    3.996 --     1 P    1.018    23 C    1.018    22 H    0.957
                            21 H    0.953
    21   1 H    0.998 --    20 C    0.953
    22   1 H    0.998 --    20 C    0.957
    23   6 C    3.997 --    20 C    1.018    25 H    0.985    26 H    0.984
                            24 H    0.984
    24   1 H    0.999 --    23 C    0.984
    25   1 H    0.998 --    23 C    0.985
    26   1 H    0.999 --    23 C    0.984
 ---------------------------------------------------------------------------

molecular dipole:
                 x           y           z       tot (Debye)
 q only:        0.003      -0.175      -0.183
   full:        0.108      -0.560      -0.276       1.611

 projected vibrational frequencies (cm⁻¹)
eigval :       -0.00    -0.00    -0.00    -0.00     0.00     0.00
eigval :       13.89    56.06    76.16   100.96   130.49   160.73
eigval :      200.44   215.71   234.56   266.15   287.18   335.18
eigval :      361.40   428.44   453.89   586.02   657.31   661.55
eigval :      686.94   699.41   735.41   763.84   780.61   873.47
eigval :      897.93   926.28   932.60   969.16   977.40   994.06
eigval :     1012.15  1018.98  1070.91  1077.44  1083.62  1117.48
eigval :     1120.79  1181.60  1198.68  1224.82  1229.88  1251.17
eigval :     1251.95  1280.03  1315.45  1409.57  1410.88  1423.20
eigval :     1438.70  1448.95  1457.83  1497.19  1498.90  1501.02
eigval :     1502.70  1579.45  1589.33  2924.39  2935.03  2947.60
eigval :     2950.93  3013.90  3014.42  3020.43  3024.51  3029.88
eigval :     3033.54  3060.98  3066.57  3074.49  3081.96  3088.23

   temp. (K)  partition function   enthalpy   heat capacity  entropy
                                   cal/mol     cal/K/mol   cal/K/mol   J/K/mol
 298.15  VIB  0.449E+05             6255.048     39.334     39.112
         ROT  0.122E+07              888.752      2.981     30.836
         INT  0.549E+11             7143.800     42.315     69.948
         TR   0.207E+28             1481.254      4.968     41.214
         TOT                        8625.0540    47.2834   111.1616   465.1000

       T/K    H(0)-H(T)+PV         H(T)/Eh          T*S/Eh         G(T)/Eh
   ------------------------------------------------------------------------
    298.15    0.137449E-01    0.232273E+00    0.528164E-01    0.179457E+00
   ------------------------------------------------------------------------

         :::::::::::::::::::::::::::::::::::::::::::::::::::::
         ::                  THERMODYNAMIC                  ::
         :::::::::::::::::::::::::::::::::::::::::::::::::::::
         :: total free energy         -31.376548953964 Eh   ::
         ::.................................................::
         :: total energy              -31.556005526546 Eh   ::
         :: zero point energy           0.218528116568 Eh   ::
         :: G(RRHO) w/o ZPVE           -0.039071543986 Eh   ::
         :: G(RRHO) contrib.            0.179456572582 Eh   ::
         :::::::::::::::::::::::::::::::::::::::::::::::::::::

           -------------------------------------------------
          | TOTAL ENERGY              -31.556005526546 Eh   |
          | TOTAL ENTHALPY            -31.323732511493 Eh   |
          | TOTAL FREE ENERGY         -31.376548953964 Eh   |
          | GRADIENT NORM               0.000044309716 Eh/α |
          | HOMO-LUMO GAP               3.675576052348 eV   |
           -------------------------------------------------

 * finished run on 2025/07/14 at 11:27:07.714
