   * xtb version 6.7.0 (08769fc) compiled by 'albert@albert-system' on 2024-03-04

   ID    Z sym.   atoms
    1   15 P      1
    2    6 C      2, 5, 9-14, 20, 23
    3    1 H      3, 4, 6-8, 15-19, 21, 22, 24-26

          program call               : /home/minenky/programs/xtb/xtb-dist/bin/xtb m1_00_PEt2Ph-PBE0-D3-TZ-uniMM_28.xyz --charge 0 --T --ohess extreme --cycles 5000 --acc 0.01 --iterations 5000
          :  Hamiltonian                  GFN2-xTB          :
 * total energy  :   -31.5486730 Eh     change        0.7105427E-14 Eh
 * total energy  :   -31.5530048 Eh     change       -0.4331797E-02 Eh
 * total energy  :   -31.5542128 Eh     change       -0.1208035E-02 Eh
 * total energy  :   -31.5546739 Eh     change       -0.4610906E-03 Eh
 * total energy  :   -31.5548619 Eh     change       -0.1880122E-03 Eh
 * total energy  :   -31.5550180 Eh     change       -0.1561032E-03 Eh
 * total energy  :   -31.5551758 Eh     change       -0.1577055E-03 Eh
 * total energy  :   -31.5552670 Eh     change       -0.9126480E-04 Eh
 * total energy  :   -31.5553045 Eh     change       -0.3743698E-04 Eh
 * total energy  :   -31.5553343 Eh     change       -0.2988806E-04 Eh
 * total energy  :   -31.5559234 Eh     change       -0.2741220E-06 Eh
 * total energy  :   -31.5559236 Eh     change       -0.2570248E-06 Eh
 * total energy  :   -31.5559239 Eh     change       -0.2452244E-06 Eh
 * total energy  :   -31.5559241 Eh     change       -0.2317192E-06 Eh
 * total energy  :   -31.5559243 Eh     change       -0.2228256E-06 Eh
 * total energy  :   -31.5559246 Eh     change       -0.2125268E-06 Eh
 * total energy  :   -31.5559248 Eh     change       -0.2054018E-06 Eh
 * total energy  :   -31.5559250 Eh     change       -0.1972199E-06 Eh
 * total energy  :   -31.5559250 Eh     change       -0.1774392E-08 Eh
   *** GEOMETRY OPTIMIZATION CONVERGED AFTER 185 ITERATIONS ***

 final structure:
================
26
 xtb: 6.7.0 (08769fc)
P            1.60187955803764       -0.26474622441821       -2.99935771795404
C            0.56046420771706       -1.17393728536692       -4.25771448546579
H            0.73188315041856       -0.66692589560772       -5.21114719805891
H            0.99197500608257       -2.17424418484707       -4.35226591323088
C           -0.93355846865798       -1.25885825638123       -3.97890135601440
H           -1.35142435453019       -0.26755029026817       -3.81154286271991
H           -1.14005876551351       -1.87365989447911       -3.10631927089709
H           -1.44307564267929       -1.70562751074732       -4.83159226873951
C            0.62203326363441        1.28348197250903       -2.90148676865206
C            0.09157589222809        1.79905841606933       -1.72452197795030
C            0.49964085169310        2.03115346456425       -4.07143270659970
C           -0.58390693344836        3.00744422225441       -1.72968862159807
C           -0.17857960680710        3.23423017248563       -4.07701585300733
C           -0.72939186300579        3.72444552003323       -2.90401618964748
H            0.20070737236002        1.26378056402215       -0.79368518711878
H            0.94343253948365        1.66147443652788       -4.98570191552387
H           -0.99806913905686        3.39096442198984       -0.80794275434850
H           -0.27410280995153        3.79495949160796       -4.99585671517534
H           -1.26060781153068        4.66493088140766       -2.90441941002333
C            1.06668808747778       -1.11784545129409       -1.42928826121543
H            1.55327376557373       -0.58265853029790       -0.60855437885524
H           -0.01518699491377       -1.04182658360377       -1.29678741306754
C            1.51652791161164       -2.57301944266836       -1.40613115329237
H            2.58573024749950       -2.64270850639369       -1.59801144252860
H            0.99592088831201       -3.15726559935302       -2.16156690829209
H            1.31227464796451       -3.01772190774505       -0.43322827002336

          :  Hamiltonian                  GFN2-xTB          :
         :: gradient norm              0.000034377555 Eh/a0 ::
         :: HOMO-LUMO gap              3.634480608087 eV    ::
         :: SCC energy               -32.077067328843 Eh    ::
         :: -> dispersion             -0.024371683986 Eh    ::
         :: repulsion energy           0.521142372545 Eh    ::

    * Orbital Energies and Occupations

         #    Occupation            Energy/Eh            Energy/eV
      -------------------------------------------------------------
         1        2.0000           -0.6587627             -17.9258
       ...           ...                  ...                  ...
        18        2.0000           -0.4769686             -12.9790
        19        2.0000           -0.4739144             -12.8959
        20        2.0000           -0.4691035             -12.7650
        21        2.0000           -0.4616910             -12.5633
        22        2.0000           -0.4526843             -12.3182
        23        2.0000           -0.4452284             -12.1153
        24        2.0000           -0.4394231             -11.9573
        25        2.0000           -0.4248048             -11.5595
        26        2.0000           -0.4141708             -11.2702
        27        2.0000           -0.4080393             -11.1033
        28        2.0000           -0.4027024             -10.9581
        29        2.0000           -0.4007800             -10.9058
        30        2.0000           -0.3633808              -9.8881 (HOMO)
        31                         -0.2298161              -6.2536 (LUMO)
        32                         -0.2214824              -6.0268
        33                         -0.1549146              -4.2154
        34                         -0.1495788              -4.0702
        35                         -0.0932726              -2.5381
        36                          0.0120807               0.3287
        37                          0.0428455               1.1659
        38                          0.1037964               2.8244
        39                          0.1126455               3.0652
        40                          0.1169272               3.1818
        41                          0.1314704               3.5775
       ...                                ...                  ...
        64                          0.7993309              21.7509
      -------------------------------------------------------------
                  HL-Gap            0.1335647 Eh            3.6345 eV

     #   Z          covCN         q      C6AA      α(0)
     1  15 P        3.015    -0.112   165.318    23.098
     2   6 C        3.748    -0.044    21.429     6.603
     3   1 H        0.926     0.042     2.427     2.436
     4   1 H        0.926     0.041     2.436     2.441
     5   6 C        3.780    -0.094    22.321     6.731
     6   1 H        0.925     0.038     2.481     2.463
     7   1 H        0.925     0.038     2.478     2.462
     8   1 H        0.925     0.032     2.561     2.503
     9   6 C        2.915     0.010    27.792     8.645
    10   6 C        2.964    -0.034    28.833     8.808
    11   6 C        3.016    -0.030    28.733     8.793
    12   6 C        2.919    -0.031    28.765     8.795
    13   6 C        2.918    -0.030    28.757     8.794
    14   6 C        2.920    -0.031    28.778     8.797
    15   1 H        0.926     0.033     2.550     2.497
    16   1 H        0.925     0.034     2.535     2.490
    17   1 H        0.926     0.028     2.617     2.530
    18   1 H        0.926     0.029     2.606     2.524
    19   1 H        0.926     0.028     2.612     2.527
    20   6 C        3.748    -0.045    21.450     6.606
    21   1 H        0.926     0.040     2.443     2.444
    22   1 H        0.925     0.047     2.363     2.404
    23   6 C        3.816    -0.097    22.334     6.726
    24   1 H        0.925     0.041     2.432     2.439
    25   1 H        0.925     0.037     2.487     2.466
    26   1 H        0.925     0.032     2.555     2.500

Wiberg/Mayer (AO) data.
largest (>0.10) Wiberg bond orders for each atom

     #   Z sym  total        # sym  WBO       # sym  WBO       # sym  WBO
 ---------------------------------------------------------------------------
     1  15 P    3.378 --    20 C    1.026     9 C    1.020     2 C    1.015
     2   6 C    3.994 --     1 P    1.015     5 C    1.012     4 H    0.956
                             3 H    0.954
     3   1 H    0.998 --     2 C    0.954
     4   1 H    0.998 --     2 C    0.956
     5   6 C    3.997 --     2 C    1.012     7 H    0.984     8 H    0.983
                             6 H    0.983
     6   1 H    0.999 --     5 C    0.983
     7   1 H    0.999 --     5 C    0.984
     8   1 H    0.999 --     5 C    0.983
     9   6 C    3.981 --    10 C    1.401    11 C    1.389     1 P    1.020
                            14 C    0.105
    10   6 C    3.993 --    12 C    1.441     9 C    1.401    15 H    0.963
                            13 C    0.107
    11   6 C    3.992 --    13 C    1.456     9 C    1.389    16 H    0.962
                            12 C    0.109
    12   6 C    3.993 --    10 C    1.441    14 C    1.441    17 H    0.970
                            11 C    0.109
    13   6 C    3.992 --    11 C    1.456    14 C    1.428    18 H    0.970
                            10 C    0.107
    14   6 C    3.991 --    12 C    1.441    13 C    1.428    19 H    0.971
                             9 C    0.105
    15   1 H    0.999 --    10 C    0.963
    16   1 H    0.999 --    11 C    0.962
    17   1 H    0.999 --    12 C    0.970
    18   1 H    0.999 --    13 C    0.970
    19   1 H    0.999 --    14 C    0.971
    20   6 C    3.995 --     1 P    1.026    23 C    1.015    21 H    0.956
                            22 H    0.951
    21   1 H    0.998 --    20 C    0.956
    22   1 H    0.998 --    20 C    0.951
    23   6 C    3.996 --    20 C    1.015    26 H    0.984    24 H    0.984
                            25 H    0.984
    24   1 H    0.998 --    23 C    0.984
    25   1 H    0.999 --    23 C    0.984
    26   1 H    0.999 --    23 C    0.984
 ---------------------------------------------------------------------------

molecular dipole:
                 x           y           z       tot (Debye)
 q only:       -0.246      -0.248       0.043
   full:       -0.604      -0.248       0.111       1.684

 projected vibrational frequencies (cm⁻¹)
eigval :       -0.00    -0.00    -0.00     0.00     0.00     0.00
eigval :       25.01    72.02    84.00   127.30   130.29   200.58
eigval :      204.67   228.72   262.37   277.55   283.59   358.14
eigval :      362.91   404.35   473.52   586.00   638.01   656.87
eigval :      683.15   704.35   729.82   746.44   791.04   870.69
eigval :      894.05   924.90   931.02   968.49   974.80   998.75
eigval :     1012.90  1021.92  1065.67  1073.28  1086.14  1115.61
eigval :     1123.66  1181.99  1203.66  1225.83  1227.59  1251.89
eigval :     1266.73  1282.75  1316.83  1408.63  1410.77  1421.71
eigval :     1451.19  1456.40  1461.93  1497.16  1501.13  1505.32
eigval :     1508.05  1577.26  1588.98  2938.70  2942.16  2948.81
eigval :     2961.33  3011.22  3013.15  3024.64  3024.87  3034.93
eigval :     3039.35  3060.96  3068.50  3074.91  3087.06  3093.94

   temp. (K)  partition function   enthalpy   heat capacity  entropy
                                   cal/mol     cal/K/mol   cal/K/mol   J/K/mol
 298.15  VIB  0.122E+05             6087.106     39.515     37.005
         ROT  0.113E+07              888.752      2.981     30.681
         INT  0.138E+11             6975.858     42.496     67.686
         TR   0.207E+28             1481.254      4.968     41.214
         TOT                        8457.1124    47.4644   108.8996   455.6361

       T/K    H(0)-H(T)+PV         H(T)/Eh          T*S/Eh         G(T)/Eh
   ------------------------------------------------------------------------
    298.15    0.134773E-01    0.232553E+00    0.517417E-01    0.180811E+00
   ------------------------------------------------------------------------

         :::::::::::::::::::::::::::::::::::::::::::::::::::::
         ::                  THERMODYNAMIC                  ::
         :::::::::::::::::::::::::::::::::::::::::::::::::::::
         :: total free energy         -31.375114162819 Eh   ::
         ::.................................................::
         :: total energy              -31.555924956298 Eh   ::
         :: zero point energy           0.219075259501 Eh   ::
         :: G(RRHO) w/o ZPVE           -0.038264466022 Eh   ::
         :: G(RRHO) contrib.            0.180810793479 Eh   ::
         :::::::::::::::::::::::::::::::::::::::::::::::::::::

           -------------------------------------------------
          | TOTAL ENERGY              -31.555924956298 Eh   |
          | TOTAL ENTHALPY            -31.323372430382 Eh   |
          | TOTAL FREE ENERGY         -31.375114162819 Eh   |
          | GRADIENT NORM               0.000034377565 Eh/α |
          | HOMO-LUMO GAP               3.634480563755 eV   |
           -------------------------------------------------

 * finished run on 2025/07/14 at 11:29:23.952
