   * xtb version 6.7.0 (08769fc) compiled by 'albert@albert-system' on 2024-03-04

   ID    Z sym.   atoms
    1   15 P      1
    2    6 C      2, 5, 9-14, 20, 23
    3    1 H      3, 4, 6-8, 15-19, 21, 22, 24-26

          program call               : /home/minenky/programs/xtb/xtb-dist/bin/xtb m1_00_PEt2Ph-PBE0-D3-TZ-uniMM_2.xyz --charge 0 --T --ohess extreme --cycles 5000 --acc 0.01 --iterations 5000
          :  Hamiltonian                  GFN2-xTB          :
 * total energy  :   -31.5524154 Eh     change       -0.2131628E-13 Eh
 * total energy  :   -31.5549049 Eh     change       -0.2489557E-02 Eh
 * total energy  :   -31.5553686 Eh     change       -0.4636925E-03 Eh
 * total energy  :   -31.5555071 Eh     change       -0.1384218E-03 Eh
 * total energy  :   -31.5555458 Eh     change       -0.3878112E-04 Eh
 * total energy  :   -31.5555829 Eh     change       -0.3709112E-04 Eh
 * total energy  :   -31.5556023 Eh     change       -0.1938520E-04 Eh
 * total energy  :   -31.5556182 Eh     change       -0.1583467E-04 Eh
 * total energy  :   -31.5556253 Eh     change       -0.7130063E-05 Eh
 * total energy  :   -31.5556308 Eh     change       -0.5509418E-05 Eh
 * total energy  :   -31.5560984 Eh     change       -0.5043622E-06 Eh
 * total energy  :   -31.5560989 Eh     change       -0.4780018E-06 Eh
 * total energy  :   -31.5560994 Eh     change       -0.4543364E-06 Eh
 * total energy  :   -31.5560998 Eh     change       -0.4311228E-06 Eh
 * total energy  :   -31.5561002 Eh     change       -0.4114577E-06 Eh
 * total energy  :   -31.5561006 Eh     change       -0.3911018E-06 Eh
 * total energy  :   -31.5561010 Eh     change       -0.3744026E-06 Eh
 * total energy  :   -31.5561013 Eh     change       -0.3560709E-06 Eh
 * total energy  :   -31.5561013 Eh     change       -0.2646626E-08 Eh
   *** GEOMETRY OPTIMIZATION CONVERGED AFTER 152 ITERATIONS ***

 final structure:
================
26
 xtb: 6.7.0 (08769fc)
P            1.73239958788848       -0.13649286688676       -2.88265153318145
C            0.16873216115821       -1.14390589493860       -2.72252083806635
H            0.03773039554247       -1.34721876467046       -1.65575014842351
H           -0.69808738217770       -0.57192834116794       -3.06429119678694
C            0.28377883176234       -2.45865188472851       -3.48142543015636
H            1.15004328868222       -3.02026754161292       -3.13687457680220
H            0.40094771711123       -2.27635586137809       -4.54851188276293
H           -0.60547708733780       -3.06868024392178       -3.33020955232569
C            1.72927583352528        0.18899947271392       -4.69511542552367
C            2.95665689621604        0.11490368224031       -5.34439783931666
C            0.59618892204192        0.50952062155735       -5.43399236064537
C            3.05510629947332        0.35956630820011       -6.70231320192297
C            0.69295995220685        0.75027242993920       -6.79216885456012
C            1.92087719463001        0.67748559899673       -7.42927913884975
H            3.83711174133872       -0.13861517133029       -4.77003750171298
H           -0.37108230587110        0.57029945641140       -4.95586101775265
H            4.01523672316206        0.30052064255724       -7.19440305877315
H           -0.19461358225405        0.99661452656219       -7.35791021859152
H            1.99122666225971        0.86728912867952       -8.49045390242971
C            1.06488321550169        1.52382390782458       -2.34468174144894
H            1.80867035288598        2.26606475408893       -2.64944998867082
H            0.13399489875315        1.74258895778470       -2.87529600440689
C            0.85607203415117        1.59194014627577       -0.83810663336618
H            1.77834959666442        1.34474921656061       -0.31608915432334
H            0.08630560152448        0.89181027532910       -0.52055639847503
H            0.55009445116082        2.59382744491397       -0.54096340072450

          :  Hamiltonian                  GFN2-xTB          :
         :: gradient norm              0.000041958844 Eh/a0 ::
         :: HOMO-LUMO gap              3.642645822922 eV    ::
         :: SCC energy               -32.076712759902 Eh    ::
         :: -> dispersion             -0.023677754153 Eh    ::
         :: repulsion energy           0.520611421961 Eh    ::

    * Orbital Energies and Occupations

         #    Occupation            Energy/Eh            Energy/eV
      -------------------------------------------------------------
         1        2.0000           -0.6578927             -17.9022
       ...           ...                  ...                  ...
        18        2.0000           -0.4773317             -12.9889
        19        2.0000           -0.4745149             -12.9122
        20        2.0000           -0.4630532             -12.6003
        21        2.0000           -0.4621194             -12.5749
        22        2.0000           -0.4534343             -12.3386
        23        2.0000           -0.4450951             -12.1117
        24        2.0000           -0.4376569             -11.9093
        25        2.0000           -0.4230999             -11.5131
        26        2.0000           -0.4184187             -11.3858
        27        2.0000           -0.4047054             -11.0126
        28        2.0000           -0.4043015             -11.0016
        29        2.0000           -0.3967766             -10.7968
        30        2.0000           -0.3669562              -9.9854 (HOMO)
        31                         -0.2330914              -6.3427 (LUMO)
        32                         -0.2229123              -6.0658
        33                         -0.1564265              -4.2566
        34                         -0.1499449              -4.0802
        35                         -0.0930496              -2.5320
        36                          0.0053435               0.1454
        37                          0.0555964               1.5129
        38                          0.0883555               2.4043
        39                          0.0952307               2.5914
        40                          0.1353682               3.6836
        41                          0.1378652               3.7515
       ...                                ...                  ...
        64                          0.7863509              21.3977
      -------------------------------------------------------------
                  HL-Gap            0.1338648 Eh            3.6426 eV

     #   Z          covCN         q      C6AA      α(0)
     1  15 P        3.044    -0.116   165.503    23.111
     2   6 C        3.748    -0.045    21.444     6.605
     3   1 H        0.926     0.039     2.463     2.454
     4   1 H        0.925     0.042     2.429     2.437
     5   6 C        3.819    -0.096    22.315     6.723
     6   1 H        0.925     0.041     2.437     2.441
     7   1 H        0.925     0.036     2.506     2.475
     8   1 H        0.925     0.032     2.556     2.500
     9   6 C        2.916     0.008    27.844     8.653
    10   6 C        3.017    -0.030    28.738     8.793
    11   6 C        2.960    -0.029    28.712     8.789
    12   6 C        2.918    -0.030    28.740     8.791
    13   6 C        2.919    -0.031    28.782     8.798
    14   6 C        2.920    -0.029    28.732     8.790
    15   1 H        0.925     0.039     2.456     2.451
    16   1 H        0.926     0.032     2.553     2.498
    17   1 H        0.926     0.030     2.581     2.512
    18   1 H        0.926     0.028     2.613     2.528
    19   1 H        0.926     0.029     2.597     2.520
    20   6 C        3.748    -0.046    21.469     6.609
    21   1 H        0.926     0.038     2.469     2.457
    22   1 H        0.925     0.043     2.413     2.429
    23   6 C        3.811    -0.098    22.357     6.730
    24   1 H        0.925     0.042     2.423     2.434
    25   1 H        0.925     0.037     2.492     2.469
    26   1 H        0.925     0.034     2.536     2.491

Wiberg/Mayer (AO) data.
largest (>0.10) Wiberg bond orders for each atom

     #   Z sym  total        # sym  WBO       # sym  WBO       # sym  WBO
 ---------------------------------------------------------------------------
     1  15 P    3.346 --     2 C    1.028    20 C    1.021     9 C    1.006
     2   6 C    3.994 --     1 P    1.028     5 C    1.016     3 H    0.957
                             4 H    0.950
     3   1 H    0.998 --     2 C    0.957
     4   1 H    0.998 --     2 C    0.950
     5   6 C    3.997 --     2 C    1.016     8 H    0.985     6 H    0.984
                             7 H    0.984
     6   1 H    0.998 --     5 C    0.984
     7   1 H    0.999 --     5 C    0.984
     8   1 H    0.999 --     5 C    0.985
     9   6 C    3.983 --    10 C    1.408    11 C    1.400     1 P    1.006
                            14 C    0.108
    10   6 C    3.991 --    12 C    1.443     9 C    1.408    15 H    0.964
                            13 C    0.108
    11   6 C    3.992 --    13 C    1.449     9 C    1.400    16 H    0.961
                            12 C    0.110
    12   6 C    3.992 --    10 C    1.443    14 C    1.440    17 H    0.970
                            11 C    0.110
    13   6 C    3.993 --    11 C    1.449    14 C    1.433    18 H    0.970
                            10 C    0.108
    14   6 C    3.989 --    12 C    1.440    13 C    1.433    19 H    0.971
                             9 C    0.108
    15   1 H    0.998 --    10 C    0.964
    16   1 H    0.999 --    11 C    0.961
    17   1 H    0.999 --    12 C    0.970
    18   1 H    0.999 --    13 C    0.970
    19   1 H    0.998 --    14 C    0.971
    20   6 C    3.995 --     1 P    1.021    23 C    1.016    21 H    0.959
                            22 H    0.951
    21   1 H    0.998 --    20 C    0.959
    22   1 H    0.998 --    20 C    0.951
    23   6 C    3.996 --    20 C    1.016    25 H    0.985    24 H    0.985
                            26 H    0.984
    24   1 H    0.998 --    23 C    0.985
    25   1 H    0.999 --    23 C    0.985
    26   1 H    0.998 --    23 C    0.984
 ---------------------------------------------------------------------------

molecular dipole:
                 x           y           z       tot (Debye)
 q only:       -0.247       0.076       0.007
   full:       -0.578       0.223      -0.181       1.640

 projected vibrational frequencies (cm⁻¹)
eigval :       -0.00    -0.00     0.00     0.00     0.00     0.00
eigval :       23.78    55.39    72.14    93.98   144.81   168.29
eigval :      203.05   215.91   224.28   265.37   315.31   328.55
eigval :      363.10   425.19   450.98   586.08   655.66   660.12
eigval :      685.67   702.22   739.26   754.42   778.13   874.81
eigval :      898.88   926.63   932.74   968.72   974.87   997.96
eigval :     1013.17  1016.96  1071.47  1076.75  1083.13  1117.57
eigval :     1121.33  1181.65  1199.15  1220.25  1225.39  1250.48
eigval :     1255.59  1278.04  1315.62  1409.25  1411.43  1423.45
eigval :     1446.52  1451.55  1459.20  1497.34  1498.40  1501.90
eigval :     1502.26  1579.85  1589.62  2928.48  2933.83  2946.47
eigval :     2949.61  3013.07  3014.24  3020.46  3026.83  3029.64
eigval :     3033.78  3063.39  3064.01  3072.30  3077.54  3087.98

   temp. (K)  partition function   enthalpy   heat capacity  entropy
                                   cal/mol     cal/K/mol   cal/K/mol   J/K/mol
 298.15  VIB  0.267E+05             6225.937     39.308     38.536
         ROT  0.122E+07              888.752      2.981     30.825
         INT  0.325E+11             7114.690     42.289     69.361
         TR   0.207E+28             1481.254      4.968     41.214
         TOT                        8595.9437    47.2568   110.5748   462.6451

       T/K    H(0)-H(T)+PV         H(T)/Eh          T*S/Eh         G(T)/Eh
   ------------------------------------------------------------------------
    298.15    0.136985E-01    0.232278E+00    0.525377E-01    0.179740E+00
   ------------------------------------------------------------------------

         :::::::::::::::::::::::::::::::::::::::::::::::::::::
         ::                  THERMODYNAMIC                  ::
         :::::::::::::::::::::::::::::::::::::::::::::::::::::
         :: total free energy         -31.376361124193 Eh   ::
         ::.................................................::
         :: total energy              -31.556101337941 Eh   ::
         :: zero point energy           0.218579377513 Eh   ::
         :: G(RRHO) w/o ZPVE           -0.038839163765 Eh   ::
         :: G(RRHO) contrib.            0.179740213748 Eh   ::
         :::::::::::::::::::::::::::::::::::::::::::::::::::::

           -------------------------------------------------
          | TOTAL ENERGY              -31.556101337941 Eh   |
          | TOTAL ENTHALPY            -31.323823452224 Eh   |
          | TOTAL FREE ENERGY         -31.376361124193 Eh   |
          | GRADIENT NORM               0.000041958658 Eh/α |
          | HOMO-LUMO GAP               3.642645852091 eV   |
           -------------------------------------------------

 * finished run on 2025/07/14 at 11:27:59.605
