   * xtb version 6.7.0 (08769fc) compiled by 'albert@albert-system' on 2024-03-04

   ID    Z sym.   atoms
    1   15 P      1
    2    6 C      2, 5, 9-14, 20, 23
    3    1 H      3, 4, 6-8, 15-19, 21, 22, 24-26

          program call               : /home/minenky/programs/xtb/xtb-dist/bin/xtb m1_00_PEt2Ph-PBE0-D3-TZ-uniMM_3.xyz --charge 0 --T --ohess extreme --cycles 5000 --acc 0.01 --iterations 5000
          :  Hamiltonian                  GFN2-xTB          :
 * total energy  :   -31.5505734 Eh     change        0.1421085E-13 Eh
 * total energy  :   -31.5553462 Eh     change       -0.4772842E-02 Eh
 * total energy  :   -31.5564287 Eh     change       -0.1082478E-02 Eh
 * total energy  :   -31.5568456 Eh     change       -0.4168951E-03 Eh
 * total energy  :   -31.5569245 Eh     change       -0.7892329E-04 Eh
 * total energy  :   -31.5569611 Eh     change       -0.3662213E-04 Eh
 * total energy  :   -31.5569736 Eh     change       -0.1247681E-04 Eh
 * total energy  :   -31.5569817 Eh     change       -0.8084763E-05 Eh
 * total energy  :   -31.5569956 Eh     change       -0.1388162E-04 Eh
 * total energy  :   -31.5570026 Eh     change       -0.7003520E-05 Eh
 * total energy  :   -31.5570208 Eh     change       -0.2164864E-05 Eh
 * total energy  :   -31.5570214 Eh     change       -0.5912080E-06 Eh
 * total energy  :   -31.5570216 Eh     change       -0.2026024E-06 Eh
 * total energy  :   -31.5570218 Eh     change       -0.1327807E-06 Eh
 * total energy  :   -31.5570219 Eh     change       -0.1668746E-06 Eh
 * total energy  :   -31.5570221 Eh     change       -0.1349210E-06 Eh
 * total energy  :   -31.5570221 Eh     change       -0.6024602E-07 Eh
 * total energy  :   -31.5570221 Eh     change        0.1334467E-08 Eh
 * total energy  :   -31.5570221 Eh     change       -0.3710454E-08 Eh
   *** GEOMETRY OPTIMIZATION CONVERGED AFTER 22 ITERATIONS ***

 final structure:
================
26
 xtb: 6.7.0 (08769fc)
P            1.64975373804804       -0.30519223394831       -3.04800654265876
C            0.79062658765640        0.74900587436184       -1.76956299454967
H           -0.19729105332593        0.99049642686740       -2.17255361869107
H            0.65034368533651        0.18722284062955       -0.84237722906047
C            1.57303324265554        2.02783893882116       -1.50509097333850
H            1.71308766423239        2.58579217468383       -2.42887713262438
H            2.55543770914499        1.79497106510763       -1.09691856358223
H            1.04517960165170        2.66232381282389       -0.79495387524580
C            3.13186368439409       -0.80238764233837       -2.07433082893316
C            3.08329964815062       -1.33604935610857       -0.79174592610097
C            4.36945800633780       -0.62198002153913       -2.68190469084796
C            4.24963067328654       -1.68058116692914       -0.13405496916736
C            5.53707659154630       -0.96619787934063       -2.02466491817835
C            5.47816701493187       -1.49688349440395       -0.74757967011563
H            2.13455031260691       -1.48717950062300       -0.29617668829442
H            4.40597078441297       -0.20683304555246       -3.67974303114650
H            4.20125238020869       -2.09503281683602        0.86316387755203
H            6.49274293070751       -0.82088853323894       -2.50747383552749
H            6.38663772774507       -1.76749765794187       -0.22935804850195
C            0.61839646321175       -1.84694227406234       -2.84062135497710
H            0.48872353884222       -2.08169892127546       -1.78092773851282
H           -0.36677903884615       -1.62480267544677       -3.26116589879793
C            1.24553598495207       -3.02365731392176       -3.57517363676484
H            2.22284247083721       -3.25696240197029       -3.15519828089790
H            1.37703998361665       -2.78726096957847       -4.62928490725115
H            0.61496766765815       -3.90771722823981       -3.49548152378570

          :  Hamiltonian                  GFN2-xTB          :
         :: gradient norm              0.000036564523 Eh/a0 ::
         :: HOMO-LUMO gap              3.637063667927 eV    ::
         :: SCC energy               -32.077706655169 Eh    ::
         :: -> dispersion             -0.024035691126 Eh    ::
         :: repulsion energy           0.520684528293 Eh    ::

    * Orbital Energies and Occupations

         #    Occupation            Energy/Eh            Energy/eV
      -------------------------------------------------------------
         1        2.0000           -0.6581229             -17.9084
       ...           ...                  ...                  ...
        18        2.0000           -0.4773484             -12.9893
        19        2.0000           -0.4746436             -12.9157
        20        2.0000           -0.4704298             -12.8010
        21        2.0000           -0.4563041             -12.4167
        22        2.0000           -0.4562094             -12.4141
        23        2.0000           -0.4423107             -12.0359
        24        2.0000           -0.4364960             -11.8777
        25        2.0000           -0.4232544             -11.5173
        26        2.0000           -0.4194627             -11.4142
        27        2.0000           -0.4052588             -11.0277
        28        2.0000           -0.4045274             -11.0078
        29        2.0000           -0.3970034             -10.8030
        30        2.0000           -0.3672951              -9.9946 (HOMO)
        31                         -0.2336355              -6.3575 (LUMO)
        32                         -0.2230298              -6.0690
        33                         -0.1548773              -4.2144
        34                         -0.1507597              -4.1024
        35                         -0.0927983              -2.5252
        36                          0.0046200               0.1257
        37                          0.0547838               1.4907
        38                          0.0923294               2.5124
        39                          0.1110248               3.0211
        40                          0.1352395               3.6801
        41                          0.1375698               3.7435
       ...                                ...                  ...
        64                          0.7796962              21.2166
      -------------------------------------------------------------
                  HL-Gap            0.1336596 Eh            3.6371 eV

     #   Z          covCN         q      C6AA      α(0)
     1  15 P        3.056    -0.118   165.593    23.117
     2   6 C        3.748    -0.047    21.475     6.610
     3   1 H        0.926     0.039     2.468     2.457
     4   1 H        0.925     0.042     2.419     2.432
     5   6 C        3.821    -0.096    22.317     6.723
     6   1 H        0.925     0.042     2.428     2.437
     7   1 H        0.925     0.036     2.501     2.473
     8   1 H        0.925     0.033     2.546     2.495
     9   6 C        2.916     0.011    27.767     8.641
    10   6 C        2.961    -0.027    28.681     8.784
    11   6 C        3.016    -0.030    28.728     8.792
    12   6 C        2.919    -0.031    28.784     8.798
    13   6 C        2.918    -0.030    28.749     8.792
    14   6 C        2.920    -0.029    28.734     8.790
    15   1 H        0.926     0.032     2.563     2.504
    16   1 H        0.925     0.040     2.451     2.448
    17   1 H        0.926     0.028     2.619     2.531
    18   1 H        0.926     0.030     2.588     2.516
    19   1 H        0.926     0.029     2.603     2.523
    20   6 C        3.748    -0.047    21.474     6.610
    21   1 H        0.925     0.042     2.420     2.433
    22   1 H        0.926     0.039     2.469     2.457
    23   6 C        3.821    -0.096    22.316     6.723
    24   1 H        0.925     0.036     2.501     2.473
    25   1 H        0.925     0.042     2.428     2.437
    26   1 H        0.925     0.033     2.546     2.495

Wiberg/Mayer (AO) data.
largest (>0.10) Wiberg bond orders for each atom

     #   Z sym  total        # sym  WBO       # sym  WBO       # sym  WBO
 ---------------------------------------------------------------------------
     1  15 P    3.349 --    20 C    1.024     2 C    1.024     9 C    1.007
     2   6 C    3.993 --     1 P    1.024     5 C    1.017     3 H    0.958
                             4 H    0.951
     3   1 H    0.998 --     2 C    0.958
     4   1 H    0.998 --     2 C    0.951
     5   6 C    3.995 --     2 C    1.017     6 H    0.985     8 H    0.984
                             7 H    0.984
     6   1 H    0.998 --     5 C    0.985
     7   1 H    0.999 --     5 C    0.984
     8   1 H    0.999 --     5 C    0.984
     9   6 C    3.983 --    11 C    1.408    10 C    1.400     1 P    1.007
                            14 C    0.108
    10   6 C    3.993 --    12 C    1.450     9 C    1.400    15 H    0.961
                            13 C    0.111
    11   6 C    3.992 --    13 C    1.443     9 C    1.408    16 H    0.964
                            12 C    0.108
    12   6 C    3.993 --    10 C    1.450    14 C    1.432    17 H    0.970
                            11 C    0.108
    13   6 C    3.992 --    11 C    1.443    14 C    1.441    18 H    0.970
                            10 C    0.111
    14   6 C    3.985 --    13 C    1.441    12 C    1.432    19 H    0.971
                             9 C    0.108
    15   1 H    0.999 --    10 C    0.961
    16   1 H    0.998 --    11 C    0.964
    17   1 H    0.999 --    12 C    0.970
    18   1 H    0.999 --    13 C    0.970
    19   1 H    0.999 --    14 C    0.971
    20   6 C    3.993 --     1 P    1.024    23 C    1.017    22 H    0.958
                            21 H    0.951
    21   1 H    0.998 --    20 C    0.951
    22   1 H    0.998 --    20 C    0.958
    23   6 C    3.995 --    20 C    1.017    26 H    0.985    25 H    0.984
                            24 H    0.984
    24   1 H    0.999 --    23 C    0.984
    25   1 H    0.998 --    23 C    0.984
    26   1 H    0.999 --    23 C    0.985
 ---------------------------------------------------------------------------

molecular dipole:
                 x           y           z       tot (Debye)
 q only:       -0.100      -0.076       0.203
   full:       -0.139      -0.230       0.583       1.633

 projected vibrational frequencies (cm⁻¹)
eigval :       -0.00    -0.00    -0.00    -0.00     0.00     0.00
eigval :       17.89    50.31    65.02   121.05   122.30   164.11
eigval :      199.60   213.93   232.27   295.30   318.43   320.44
eigval :      363.62   401.32   450.37   586.10   657.50   668.69
eigval :      687.43   704.80   735.16   753.31   780.15   875.04
eigval :      899.16   926.87   932.99   969.38   975.72   998.58
eigval :     1003.61  1020.14  1062.82  1082.78  1085.09  1116.95
eigval :     1121.59  1181.68  1198.84  1217.02  1229.79  1244.60
eigval :     1255.33  1278.90  1315.81  1410.38  1411.01  1423.54
eigval :     1442.68  1449.87  1458.16  1497.18  1497.30  1501.62
eigval :     1501.82  1579.96  1589.60  2931.59  2936.89  2944.69
eigval :     2951.28  3013.97  3014.42  3019.53  3019.59  3029.53
eigval :     3030.64  3061.38  3063.75  3070.76  3076.96  3087.69

   temp. (K)  partition function   enthalpy   heat capacity  entropy
                                   cal/mol     cal/K/mol   cal/K/mol   J/K/mol
 298.15  VIB  0.381E+05             6235.740     39.143     38.708
         ROT  0.118E+07              888.752      2.981     30.762
         INT  0.448E+11             7124.492     42.124     69.469
         TR   0.207E+28             1481.254      4.968     41.214
         TOT                        8605.7460    47.0917   110.6828   463.0967

       T/K    H(0)-H(T)+PV         H(T)/Eh          T*S/Eh         G(T)/Eh
   ------------------------------------------------------------------------
    298.15    0.137141E-01    0.232231E+00    0.525890E-01    0.179642E+00
   ------------------------------------------------------------------------

         :::::::::::::::::::::::::::::::::::::::::::::::::::::
         ::                  THERMODYNAMIC                  ::
         :::::::::::::::::::::::::::::::::::::::::::::::::::::
         :: total free energy         -31.377380563224 Eh   ::
         ::.................................................::
         :: total energy              -31.557022126876 Eh   ::
         :: zero point energy           0.218516392416 Eh   ::
         :: G(RRHO) w/o ZPVE           -0.038874828764 Eh   ::
         :: G(RRHO) contrib.            0.179641563652 Eh   ::
         :::::::::::::::::::::::::::::::::::::::::::::::::::::

           -------------------------------------------------
          | TOTAL ENERGY              -31.557022126876 Eh   |
          | TOTAL ENTHALPY            -31.324791605311 Eh   |
          | TOTAL FREE ENERGY         -31.377380563224 Eh   |
          | GRADIENT NORM               0.000036563810 Eh/α |
          | HOMO-LUMO GAP               3.637063642537 eV   |
           -------------------------------------------------

 * finished run on 2025/07/14 at 11:29:35.530
