   * xtb version 6.7.0 (08769fc) compiled by 'albert@albert-system' on 2024-03-04

   ID    Z sym.   atoms
    1   15 P      1
    2    6 C      2, 5, 9-14, 20, 23
    3    1 H      3, 4, 6-8, 15-19, 21, 22, 24-26

          program call               : /home/minenky/programs/xtb/xtb-dist/bin/xtb m1_00_PEt2Ph-PBE0-D3-TZ-uniMM_54.xyz --charge 0 --T --ohess extreme --cycles 5000 --acc 0.01 --iterations 5000
          :  Hamiltonian                  GFN2-xTB          :
 * total energy  :   -31.5390510 Eh     change       -0.4973799E-13 Eh
 * total energy  :   -31.5472108 Eh     change       -0.8159727E-02 Eh
 * total energy  :   -31.5501894 Eh     change       -0.2978633E-02 Eh
 * total energy  :   -31.5517595 Eh     change       -0.1570127E-02 Eh
 * total energy  :   -31.5523772 Eh     change       -0.6177268E-03 Eh
 * total energy  :   -31.5526903 Eh     change       -0.3130593E-03 Eh
 * total energy  :   -31.5529068 Eh     change       -0.2164600E-03 Eh
 * total energy  :   -31.5531405 Eh     change       -0.2337561E-03 Eh
 * total energy  :   -31.5534602 Eh     change       -0.3197248E-03 Eh
 * total energy  :   -31.5538089 Eh     change       -0.3486724E-03 Eh
 * total energy  :   -31.5570221 Eh     change       -0.2941501E-07 Eh
 * total energy  :   -31.5570222 Eh     change       -0.9488828E-07 Eh
 * total energy  :   -31.5570222 Eh     change       -0.6862088E-08 Eh
 * total energy  :   -31.5570222 Eh     change        0.6044036E-08 Eh
 * total energy  :   -31.5570222 Eh     change       -0.4393382E-07 Eh
 * total energy  :   -31.5570222 Eh     change       -0.6808566E-08 Eh
 * total energy  :   -31.5570223 Eh     change       -0.3492568E-07 Eh
 * total energy  :   -31.5570223 Eh     change        0.5746514E-10 Eh
 * total energy  :   -31.5570223 Eh     change       -0.2289394E-07 Eh
   *** GEOMETRY OPTIMIZATION CONVERGED AFTER 74 ITERATIONS ***

 final structure:
================
26
 xtb: 6.7.0 (08769fc)
P            1.66368304211655       -0.17764647867758       -2.79559005854814
C            0.52145603319412        0.35007833944888       -1.41696807347933
H           -0.46823619593885        0.48630216090820       -1.86271020648991
H            0.44703042425616       -0.43515601646130       -0.66013058083142
C            0.99448541699948        1.65349741251245       -0.78859287656949
H            1.06915391644470        2.43412509458645       -1.54314171325394
H            1.97666616148523        1.52322294344108       -0.33658442416964
H            0.30013331024996        1.98359558187454       -0.01761331968425
C            3.15505846862782       -0.59962543291881       -1.80071756967719
C            3.14252131002290       -1.42487122900316       -0.68222638531618
C            4.36103799279392       -0.04482342424183       -2.21436804658250
C            4.31309589225103       -1.68731709009304        0.00515638564689
C            5.53281031901152       -0.30658132267033       -1.52718481569283
C            5.50991319061369       -1.12977318307011       -0.41459648396388
H            2.21889356752774       -1.86943280093199       -0.33900082202030
H            4.36959072672337        0.59687560610979       -3.08474021790411
H            4.29290118040860       -2.33057788380251        0.87369878922773
H            6.46365218121896        0.13067344749697       -1.85865015793147
H            6.42182493083144       -1.33789563511393        0.12598514419434
C            0.97562339974367       -1.89344724314956       -3.05306251477389
H            0.83664907047085       -2.39844327310828       -2.09360185487317
H           -0.00750034155561       -1.77162470084654       -3.51715763240601
C            1.88296410225294       -2.71221067547761       -3.96075495285817
H            2.86159972215208       -2.84390625541760       -3.50152357135003
H            2.02127629986197       -2.20772310339995       -4.91505617542666
H            1.45415087823451       -3.69521683799529       -4.14866986526676

          :  Hamiltonian                  GFN2-xTB          :
         :: gradient norm              0.000045556119 Eh/a0 ::
         :: HOMO-LUMO gap              3.636850060163 eV    ::
         :: SCC energy               -32.077703409060 Eh    ::
         :: -> dispersion             -0.024033823452 Eh    ::
         :: repulsion energy           0.520681113903 Eh    ::

    * Orbital Energies and Occupations

         #    Occupation            Energy/Eh            Energy/eV
      -------------------------------------------------------------
         1        2.0000           -0.6581217             -17.9084
       ...           ...                  ...                  ...
        18        2.0000           -0.4773492             -12.9893
        19        2.0000           -0.4746470             -12.9158
        20        2.0000           -0.4704229             -12.8009
        21        2.0000           -0.4562981             -12.4165
        22        2.0000           -0.4562208             -12.4144
        23        2.0000           -0.4423042             -12.0357
        24        2.0000           -0.4364978             -11.8777
        25        2.0000           -0.4232565             -11.5174
        26        2.0000           -0.4194592             -11.4141
        27        2.0000           -0.4052618             -11.0277
        28        2.0000           -0.4045285             -11.0078
        29        2.0000           -0.3970073             -10.8031
        30        2.0000           -0.3672882              -9.9944 (HOMO)
        31                         -0.2336364              -6.3576 (LUMO)
        32                         -0.2230322              -6.0690
        33                         -0.1548830              -4.2146
        34                         -0.1507374              -4.1018
        35                         -0.0927972              -2.5251
        36                          0.0045776               0.1246
        37                          0.0548409               1.4923
        38                          0.0923532               2.5131
        39                          0.1109347               3.0187
        40                          0.1352401               3.6801
        41                          0.1375595               3.7432
       ...                                ...                  ...
        64                          0.7795950              21.2139
      -------------------------------------------------------------
                  HL-Gap            0.1336518 Eh            3.6369 eV

     #   Z          covCN         q      C6AA      α(0)
     1  15 P        3.056    -0.118   165.595    23.117
     2   6 C        3.748    -0.047    21.475     6.610
     3   1 H        0.926     0.039     2.468     2.457
     4   1 H        0.925     0.042     2.419     2.432
     5   6 C        3.821    -0.096    22.317     6.723
     6   1 H        0.925     0.042     2.428     2.437
     7   1 H        0.925     0.036     2.501     2.473
     8   1 H        0.925     0.033     2.546     2.495
     9   6 C        2.916     0.011    27.768     8.641
    10   6 C        2.961    -0.027    28.681     8.784
    11   6 C        3.016    -0.030    28.728     8.792
    12   6 C        2.919    -0.031    28.784     8.798
    13   6 C        2.918    -0.030    28.749     8.793
    14   6 C        2.920    -0.029    28.734     8.790
    15   1 H        0.926     0.032     2.564     2.504
    16   1 H        0.925     0.040     2.451     2.448
    17   1 H        0.926     0.028     2.619     2.531
    18   1 H        0.926     0.030     2.588     2.516
    19   1 H        0.926     0.029     2.603     2.523
    20   6 C        3.748    -0.047    21.474     6.610
    21   1 H        0.925     0.042     2.420     2.433
    22   1 H        0.926     0.039     2.469     2.457
    23   6 C        3.821    -0.096    22.316     6.723
    24   1 H        0.925     0.036     2.501     2.473
    25   1 H        0.925     0.042     2.428     2.437
    26   1 H        0.925     0.033     2.546     2.495

Wiberg/Mayer (AO) data.
largest (>0.10) Wiberg bond orders for each atom

     #   Z sym  total        # sym  WBO       # sym  WBO       # sym  WBO
 ---------------------------------------------------------------------------
     1  15 P    3.349 --    20 C    1.024     2 C    1.024     9 C    1.007
     2   6 C    3.993 --     1 P    1.024     5 C    1.017     3 H    0.958
                             4 H    0.951
     3   1 H    0.998 --     2 C    0.958
     4   1 H    0.998 --     2 C    0.951
     5   6 C    3.995 --     2 C    1.017     6 H    0.985     8 H    0.984
                             7 H    0.984
     6   1 H    0.998 --     5 C    0.985
     7   1 H    0.999 --     5 C    0.984
     8   1 H    0.999 --     5 C    0.984
     9   6 C    3.983 --    11 C    1.408    10 C    1.400     1 P    1.007
                            14 C    0.108
    10   6 C    3.993 --    12 C    1.450     9 C    1.400    15 H    0.961
                            13 C    0.111
    11   6 C    3.992 --    13 C    1.443     9 C    1.408    16 H    0.964
                            12 C    0.108
    12   6 C    3.993 --    10 C    1.450    14 C    1.432    17 H    0.970
                            11 C    0.108
    13   6 C    3.992 --    11 C    1.443    14 C    1.441    18 H    0.970
                            10 C    0.111
    14   6 C    3.985 --    13 C    1.441    12 C    1.432    19 H    0.971
                             9 C    0.108
    15   1 H    0.999 --    10 C    0.961
    16   1 H    0.998 --    11 C    0.964
    17   1 H    0.999 --    12 C    0.970
    18   1 H    0.999 --    13 C    0.970
    19   1 H    0.999 --    14 C    0.971
    20   6 C    3.993 --     1 P    1.024    23 C    1.017    22 H    0.958
                            21 H    0.951
    21   1 H    0.998 --    20 C    0.951
    22   1 H    0.998 --    20 C    0.958
    23   6 C    3.995 --    20 C    1.017    25 H    0.985    26 H    0.985
                            24 H    0.984
    24   1 H    0.999 --    23 C    0.984
    25   1 H    0.998 --    23 C    0.985
    26   1 H    0.999 --    23 C    0.985
 ---------------------------------------------------------------------------

molecular dipole:
                 x           y           z       tot (Debye)
 q only:       -0.094      -0.141       0.168
   full:       -0.122      -0.387       0.498       1.633

 projected vibrational frequencies (cm⁻¹)
eigval :       -0.00    -0.00    -0.00     0.00     0.00     0.00
eigval :       17.83    50.32    65.05   121.11   122.31   164.13
eigval :      199.57   213.88   232.31   295.30   318.47   320.40
eigval :      363.62   401.37   450.35   586.09   657.50   668.73
eigval :      687.39   704.84   735.16   753.36   780.15   875.01
eigval :      899.16   926.85   932.99   969.39   975.69   998.52
eigval :     1003.55  1020.08  1062.81  1082.80  1085.08  1116.94
eigval :     1121.58  1181.71  1198.84  1217.01  1229.75  1244.54
eigval :     1255.30  1278.92  1315.82  1410.35  1411.01  1423.54
eigval :     1442.69  1449.90  1458.00  1497.20  1497.31  1501.63
eigval :     1501.83  1580.06  1589.64  2931.58  2936.92  2944.67
eigval :     2951.24  3013.95  3014.42  3019.49  3019.55  3029.51
eigval :     3030.61  3061.43  3063.60  3070.74  3076.95  3087.62

   temp. (K)  partition function   enthalpy   heat capacity  entropy
                                   cal/mol     cal/K/mol   cal/K/mol   J/K/mol
 298.15  VIB  0.381E+05             6235.711     39.143     38.709
         ROT  0.118E+07              888.752      2.981     30.762
         INT  0.449E+11             7124.463     42.124     69.471
         TR   0.207E+28             1481.254      4.968     41.214
         TOT                        8605.7173    47.0922   110.6846   463.1043

       T/K    H(0)-H(T)+PV         H(T)/Eh          T*S/Eh         G(T)/Eh
   ------------------------------------------------------------------------
    298.15    0.137141E-01    0.232229E+00    0.525898E-01    0.179639E+00
   ------------------------------------------------------------------------

         :::::::::::::::::::::::::::::::::::::::::::::::::::::
         ::                  THERMODYNAMIC                  ::
         :::::::::::::::::::::::::::::::::::::::::::::::::::::
         :: total free energy         -31.377382969140 Eh   ::
         ::.................................................::
         :: total energy              -31.557022295157 Eh   ::
         :: zero point energy           0.218515055228 Eh   ::
         :: G(RRHO) w/o ZPVE           -0.038875729210 Eh   ::
         :: G(RRHO) contrib.            0.179639326017 Eh   ::
         :::::::::::::::::::::::::::::::::::::::::::::::::::::

           -------------------------------------------------
          | TOTAL ENERGY              -31.557022295157 Eh   |
          | TOTAL ENTHALPY            -31.324793156433 Eh   |
          | TOTAL FREE ENERGY         -31.377382969140 Eh   |
          | GRADIENT NORM               0.000045556662 Eh/α |
          | HOMO-LUMO GAP               3.636850090744 eV   |
           -------------------------------------------------

 * finished run on 2025/07/14 at 11:35:07.379
