   * xtb version 6.7.0 (08769fc) compiled by 'albert@albert-system' on 2024-03-04

   ID    Z sym.   atoms
    1   15 P      1
    2    6 C      2, 5, 9-14, 20, 23
    3    1 H      3, 4, 6-8, 15-19, 21, 22, 24-26

          program call               : /home/minenky/programs/xtb/xtb-dist/bin/xtb m1_00_PEt2Ph-PBE0-D3-TZ-uniMM_73.xyz --charge 0 --T --ohess extreme --cycles 5000 --acc 0.01 --iterations 5000
          :  Hamiltonian                  GFN2-xTB          :
 * total energy  :   -31.5271491 Eh     change       -0.7105427E-13 Eh
 * total energy  :   -31.5398289 Eh     change       -0.1267979E-01 Eh
 * total energy  :   -31.5446869 Eh     change       -0.4857977E-02 Eh
 * total energy  :   -31.5474351 Eh     change       -0.2748232E-02 Eh
 * total energy  :   -31.5490410 Eh     change       -0.1605883E-02 Eh
 * total energy  :   -31.5500852 Eh     change       -0.1044269E-02 Eh
 * total energy  :   -31.5508229 Eh     change       -0.7376142E-03 Eh
 * total energy  :   -31.5513867 Eh     change       -0.5638339E-03 Eh
 * total energy  :   -31.5519457 Eh     change       -0.5589801E-03 Eh
 * total energy  :   -31.5526180 Eh     change       -0.6723707E-03 Eh
 * total energy  :   -31.5556616 Eh     change       -0.1473494E-05 Eh
 * total energy  :   -31.5556626 Eh     change       -0.1052853E-05 Eh
 * total energy  :   -31.5556632 Eh     change       -0.6251111E-06 Eh
 * total energy  :   -31.5556636 Eh     change       -0.3975449E-06 Eh
 * total energy  :   -31.5556639 Eh     change       -0.2801637E-06 Eh
 * total energy  :   -31.5556642 Eh     change       -0.2407696E-06 Eh
 * total energy  :   -31.5556644 Eh     change       -0.2285728E-06 Eh
 * total energy  :   -31.5556646 Eh     change       -0.2525605E-06 Eh
 * total energy  :   -31.5556646 Eh     change       -0.2202146E-08 Eh
   *** GEOMETRY OPTIMIZATION CONVERGED AFTER 68 ITERATIONS ***

 final structure:
================
26
 xtb: 6.7.0 (08769fc)
P            1.17172616124261       -0.39538804327436       -2.75138998003857
C           -0.17363868771511        0.86965258322693       -2.99915361997072
H            0.32940384099666        1.83951932271603       -3.06072176717663
H           -0.70312524940380        0.70236715460423       -3.93948590891754
C           -1.14080202778036        0.87232849997592       -1.82091153421909
H           -0.60841119595435        1.09514176433492       -0.89852476171387
H           -1.61639276481958       -0.09970072942876       -1.70429919844623
H           -1.91731653009720        1.62303819300934       -1.96166147278785
C            0.42763870845847       -1.92782853491573       -3.43716273466170
C           -0.89471691185929       -2.08624019956131       -3.83142182338427
C            1.28042501157213       -3.02870962160489       -3.49662241637182
C           -1.34136514802713       -3.30832507909198       -4.30526578197401
C            0.83633971551046       -4.24574319788121       -3.97447667758973
C           -0.47972670711398       -4.38790609409162       -4.38439391034815
H           -1.59019972491622       -1.26267534205468       -3.77741158562709
H            2.30321958657697       -2.91879742752899       -3.16087402968643
H           -2.37145867088200       -3.41599943658380       -4.61479858511468
H            1.51261362712005       -5.08719522724778       -4.02250602063897
H           -0.83321889581211       -5.33830006053703       -4.75668635953039
C            2.26339997920875        0.03169511172634       -4.20786942255482
H            2.72797856291609        0.99369661353238       -3.97222388533954
H            3.05972661086690       -0.71792426336111       -4.21578629129379
C            1.59343828652464        0.08537878372799       -5.57393693924531
H            0.88740596842438        0.90969195430306       -5.63562141220124
H            1.06391284548319       -0.84314503784421       -5.78039909228976
H            2.34609260947982        0.22922531385160       -6.34782278887784

          :  Hamiltonian                  GFN2-xTB          :
         :: gradient norm              0.000034674046 Eh/a0 ::
         :: HOMO-LUMO gap              3.648456621125 eV    ::
         :: SCC energy               -32.076673891851 Eh    ::
         :: -> dispersion             -0.024324390412 Eh    ::
         :: repulsion energy           0.521009249169 Eh    ::

    * Orbital Energies and Occupations

         #    Occupation            Energy/Eh            Energy/eV
      -------------------------------------------------------------
         1        2.0000           -0.6587627             -17.9258
       ...           ...                  ...                  ...
        18        2.0000           -0.4754457             -12.9375
        19        2.0000           -0.4741807             -12.9031
        20        2.0000           -0.4670886             -12.7101
        21        2.0000           -0.4610108             -12.5447
        22        2.0000           -0.4564780             -12.4214
        23        2.0000           -0.4434841             -12.0678
        24        2.0000           -0.4381608             -11.9230
        25        2.0000           -0.4238978             -11.5348
        26        2.0000           -0.4163951             -11.3307
        27        2.0000           -0.4070712             -11.0770
        28        2.0000           -0.4029544             -10.9649
        29        2.0000           -0.3994886             -10.8706
        30        2.0000           -0.3641513              -9.9091 (HOMO)
        31                         -0.2300730              -6.2606 (LUMO)
        32                         -0.2216165              -6.0305
        33                         -0.1544136              -4.2018
        34                         -0.1502872              -4.0895
        35                         -0.0931528              -2.5348
        36                          0.0035595               0.0969
        37                          0.0493095               1.3418
        38                          0.0995057               2.7077
        39                          0.1121386               3.0514
        40                          0.1211526               3.2967
        41                          0.1307709               3.5585
       ...                                ...                  ...
        64                          0.7777702              21.1642
      -------------------------------------------------------------
                  HL-Gap            0.1340783 Eh            3.6485 eV

     #   Z          covCN         q      C6AA      α(0)
     1  15 P        3.031    -0.115   165.444    23.107
     2   6 C        3.748    -0.045    21.453     6.606
     3   1 H        0.926     0.040     2.447     2.446
     4   1 H        0.925     0.046     2.368     2.407
     5   6 C        3.822    -0.097    22.341     6.726
     6   1 H        0.925     0.041     2.434     2.440
     7   1 H        0.925     0.039     2.464     2.455
     8   1 H        0.925     0.031     2.569     2.506
     9   6 C        2.915     0.012    27.743     8.637
    10   6 C        2.955    -0.033    28.818     8.805
    11   6 C        3.034    -0.030    28.717     8.790
    12   6 C        2.920    -0.032    28.788     8.799
    13   6 C        2.918    -0.030    28.748     8.792
    14   6 C        2.920    -0.031    28.774     8.796
    15   1 H        0.926     0.036     2.506     2.476
    16   1 H        0.925     0.035     2.522     2.483
    17   1 H        0.926     0.027     2.629     2.536
    18   1 H        0.926     0.029     2.606     2.524
    19   1 H        0.926     0.028     2.617     2.530
    20   6 C        3.747    -0.046    21.460     6.607
    21   1 H        0.926     0.040     2.449     2.447
    22   1 H        0.926     0.042     2.421     2.433
    23   6 C        3.780    -0.096    22.347     6.734
    24   1 H        0.925     0.037     2.487     2.466
    25   1 H        0.925     0.038     2.471     2.458
    26   1 H        0.925     0.033     2.540     2.492

Wiberg/Mayer (AO) data.
largest (>0.10) Wiberg bond orders for each atom

     #   Z sym  total        # sym  WBO       # sym  WBO       # sym  WBO
 ---------------------------------------------------------------------------
     1  15 P    3.375 --     2 C    1.030     9 C    1.017    20 C    1.012
     2   6 C    3.995 --     1 P    1.030     5 C    1.016     3 H    0.956
                             4 H    0.949
     3   1 H    0.998 --     2 C    0.956
     4   1 H    0.998 --     2 C    0.949
     5   6 C    3.997 --     2 C    1.016     6 H    0.985     8 H    0.985
                             7 H    0.983
     6   1 H    0.998 --     5 C    0.985
     7   1 H    0.998 --     5 C    0.983
     8   1 H    0.999 --     5 C    0.985
     9   6 C    3.982 --    10 C    1.404    11 C    1.390     1 P    1.017
                            14 C    0.106
    10   6 C    3.993 --    12 C    1.439     9 C    1.404    15 H    0.961
                            13 C    0.107
    11   6 C    3.992 --    13 C    1.457     9 C    1.390    16 H    0.962
                            12 C    0.110
    12   6 C    3.993 --    14 C    1.442    10 C    1.439    17 H    0.970
                            11 C    0.110
    13   6 C    3.991 --    11 C    1.457    14 C    1.428    18 H    0.970
                            10 C    0.107
    14   6 C    3.992 --    12 C    1.442    13 C    1.428    19 H    0.971
                             9 C    0.106
    15   1 H    0.999 --    10 C    0.961
    16   1 H    0.999 --    11 C    0.962
    17   1 H    0.999 --    12 C    0.970
    18   1 H    0.999 --    13 C    0.970
    19   1 H    0.998 --    14 C    0.971
    20   6 C    3.994 --     1 P    1.012    23 C    1.012    21 H    0.957
                            22 H    0.956
    21   1 H    0.998 --    20 C    0.957
    22   1 H    0.998 --    20 C    0.956
    23   6 C    3.997 --    20 C    1.012    24 H    0.985    26 H    0.983
                            25 H    0.983
    24   1 H    0.999 --    23 C    0.985
    25   1 H    0.999 --    23 C    0.983
    26   1 H    0.999 --    23 C    0.983
 ---------------------------------------------------------------------------

molecular dipole:
                 x           y           z       tot (Debye)
 q only:       -0.078       0.187      -0.245
   full:       -0.237       0.182      -0.583       1.664

 projected vibrational frequencies (cm⁻¹)
eigval :       -0.00    -0.00     0.00     0.00     0.00     0.00
eigval :       24.65    64.28    84.94   113.49   161.40   170.39
eigval :      201.68   222.57   248.18   262.37   314.88   361.21
eigval :      366.24   392.85   473.08   585.85   648.64   659.30
eigval :      679.06   690.50   736.56   760.62   769.33   872.91
eigval :      896.14   925.87   931.67   967.51   982.12   995.07
eigval :     1013.60  1017.24  1063.76  1077.72  1084.83  1115.17
eigval :     1123.33  1181.71  1203.76  1222.63  1230.87  1250.19
eigval :     1268.51  1280.19  1317.26  1407.76  1412.82  1421.47
eigval :     1448.76  1451.33  1462.01  1496.55  1499.47  1504.94
eigval :     1506.63  1578.16  1589.24  2936.11  2941.14  2951.46
eigval :     2955.16  3011.78  3012.25  3023.49  3025.14  3034.11
eigval :     3040.94  3054.28  3067.43  3074.35  3086.70  3093.40

   temp. (K)  partition function   enthalpy   heat capacity  entropy
                                   cal/mol     cal/K/mol   cal/K/mol   J/K/mol
 298.15  VIB  0.146E+05             6120.688     39.478     37.342
         ROT  0.115E+07              888.752      2.981     30.720
         INT  0.168E+11             7009.441     42.459     68.062
         TR   0.207E+28             1481.254      4.968     41.214
         TOT                        8490.6944    47.4268   109.2759   457.2104

       T/K    H(0)-H(T)+PV         H(T)/Eh          T*S/Eh         G(T)/Eh
   ------------------------------------------------------------------------
    298.15    0.135308E-01    0.232465E+00    0.519205E-01    0.180544E+00
   ------------------------------------------------------------------------

         :::::::::::::::::::::::::::::::::::::::::::::::::::::
         ::                  THERMODYNAMIC                  ::
         :::::::::::::::::::::::::::::::::::::::::::::::::::::
         :: total free energy         -31.375120154172 Eh   ::
         ::.................................................::
         :: total energy              -31.555664642681 Eh   ::
         :: zero point energy           0.218934214930 Eh   ::
         :: G(RRHO) w/o ZPVE           -0.038389726421 Eh   ::
         :: G(RRHO) contrib.            0.180544488509 Eh   ::
         :::::::::::::::::::::::::::::::::::::::::::::::::::::

           -------------------------------------------------
          | TOTAL ENERGY              -31.555664642681 Eh   |
          | TOTAL ENTHALPY            -31.323199644912 Eh   |
          | TOTAL FREE ENERGY         -31.375120154172 Eh   |
          | GRADIENT NORM               0.000034674860 Eh/α |
          | HOMO-LUMO GAP               3.648456613051 eV   |
           -------------------------------------------------

 * finished run on 2025/07/14 at 11:38:42.264
