   * xtb version 6.7.0 (08769fc) compiled by 'albert@albert-system' on 2024-03-04

   ID    Z sym.   atoms
    1   15 P      1
    2    6 C      2, 5, 9-14, 20, 23
    3    1 H      3, 4, 6-8, 15-19, 21, 22, 24-26

          program call               : /home/minenky/programs/xtb/xtb-dist/bin/xtb m1_00_PEt2Ph-PBE0-D3-TZ-uniMM_64.xyz --charge 0 --T --ohess extreme --cycles 5000 --acc 0.01 --iterations 5000
          :  Hamiltonian                  GFN2-xTB          :
 * total energy  :   -31.5316447 Eh     change       -0.3552714E-13 Eh
 * total energy  :   -31.5413215 Eh     change       -0.9676768E-02 Eh
 * total energy  :   -31.5439695 Eh     change       -0.2647956E-02 Eh
 * total energy  :   -31.5451816 Eh     change       -0.1212118E-02 Eh
 * total energy  :   -31.5456000 Eh     change       -0.4184009E-03 Eh
 * total energy  :   -31.5458685 Eh     change       -0.2685252E-03 Eh
 * total energy  :   -31.5461423 Eh     change       -0.2737540E-03 Eh
 * total energy  :   -31.5464644 Eh     change       -0.3221402E-03 Eh
 * total energy  :   -31.5468927 Eh     change       -0.4282982E-03 Eh
 * total energy  :   -31.5474321 Eh     change       -0.5394443E-03 Eh
 * total energy  :   -31.5556604 Eh     change       -0.3949482E-06 Eh
 * total energy  :   -31.5556608 Eh     change       -0.3852396E-06 Eh
 * total energy  :   -31.5556612 Eh     change       -0.3926678E-06 Eh
 * total energy  :   -31.5556616 Eh     change       -0.3658115E-06 Eh
 * total energy  :   -31.5556619 Eh     change       -0.2983853E-06 Eh
 * total energy  :   -31.5556621 Eh     change       -0.2610999E-06 Eh
 * total energy  :   -31.5556623 Eh     change       -0.2342696E-06 Eh
 * total energy  :   -31.5556626 Eh     change       -0.2334570E-06 Eh
 * total energy  :   -31.5556626 Eh     change       -0.1785775E-08 Eh
   *** GEOMETRY OPTIMIZATION CONVERGED AFTER 68 ITERATIONS ***

 final structure:
================
26
 xtb: 6.7.0 (08769fc)
P            1.62335278869825       -0.14433133341605       -3.16587555822953
C            0.01709517464825       -0.47835604025660       -4.06211630560851
H           -0.72189566643830        0.19853392704535       -3.62462315334058
H            0.17249345765265       -0.15921799652631       -5.09698020781156
C           -0.50450761917026       -1.90802825232760       -4.01936789778305
H           -0.59536751379116       -2.25445544656113       -2.99136901872072
H            0.15444489248994       -2.58510886848340       -4.55703390749387
H           -1.48802964121018       -1.95560687463129       -4.48468699017880
C            1.18009251079600       -0.90236926740761       -1.55350915651589
C            1.78543469499845       -2.02066909344923       -0.99439645550915
C            0.20219945275162       -0.23373994885828       -0.81885926391803
C            1.39290098173740       -2.47957795913212        0.25165744133116
C           -0.19361055123771       -0.69537898709708        0.42087788808612
C            0.40000250501417       -1.82583950448519        0.95935329964168
H            2.56587544232469       -2.54758105767619       -1.52172277116240
H           -0.24882603206121        0.65842902479583       -1.23251343361593
H            1.86804579134752       -3.35503207403109        0.67150175699794
H           -0.96124715631906       -0.17176825528987        0.97251814193442
H            0.09513010383748       -2.18991785035129        1.92954722666992
C            2.68347535457570       -1.45559995056940       -3.96103483298247
H            2.33925657427048       -2.45553544722488       -3.68806286100304
H            2.55713452899206       -1.33511096138465       -5.04122376550407
C            4.15217187879920       -1.26592091310062       -3.59912156043460
H            4.30110327124195       -1.32510052406161       -2.52264786498506
H            4.49668098908984       -0.28800930651431       -3.92901422190677
H            4.76734578696028       -2.02790403900808       -4.07595052795355

          :  Hamiltonian                  GFN2-xTB          :
         :: gradient norm              0.000033947038 Eh/a0 ::
         :: HOMO-LUMO gap              3.647741884598 eV    ::
         :: SCC energy               -32.076661763766 Eh    ::
         :: -> dispersion             -0.024321362358 Eh    ::
         :: repulsion energy           0.520999179074 Eh    ::

    * Orbital Energies and Occupations

         #    Occupation            Energy/Eh            Energy/eV
      -------------------------------------------------------------
         1        2.0000           -0.6588077             -17.9271
       ...           ...                  ...                  ...
        18        2.0000           -0.4752826             -12.9331
        19        2.0000           -0.4741805             -12.9031
        20        2.0000           -0.4670943             -12.7103
        21        2.0000           -0.4609925             -12.5442
        22        2.0000           -0.4564727             -12.4213
        23        2.0000           -0.4433902             -12.0653
        24        2.0000           -0.4382968             -11.9267
        25        2.0000           -0.4240931             -11.5402
        26        2.0000           -0.4160413             -11.3211
        27        2.0000           -0.4074353             -11.0869
        28        2.0000           -0.4028521             -10.9622
        29        2.0000           -0.3996754             -10.8757
        30        2.0000           -0.3639988              -9.9049 (HOMO)
        31                         -0.2299467              -6.2572 (LUMO)
        32                         -0.2215145              -6.0277
        33                         -0.1553441              -4.2271
        34                         -0.1500250              -4.0824
        35                         -0.0931970              -2.5360
        36                          0.0041779               0.1137
        37                          0.0487719               1.3272
        38                          0.0975944               2.6557
        39                          0.1135313               3.0893
        40                          0.1210206               3.2931
        41                          0.1304588               3.5500
       ...                                ...                  ...
        64                          0.7755412              21.1036
      -------------------------------------------------------------
                  HL-Gap            0.1340520 Eh            3.6477 eV

     #   Z          covCN         q      C6AA      α(0)
     1  15 P        3.026    -0.112   165.340    23.100
     2   6 C        3.748    -0.046    21.464     6.608
     3   1 H        0.926     0.042     2.424     2.435
     4   1 H        0.926     0.040     2.451     2.448
     5   6 C        3.781    -0.096    22.348     6.735
     6   1 H        0.925     0.038     2.472     2.459
     7   1 H        0.925     0.037     2.486     2.465
     8   1 H        0.925     0.033     2.540     2.492
     9   6 C        2.915     0.012    27.745     8.638
    10   6 C        2.957    -0.033    28.823     8.806
    11   6 C        3.029    -0.030    28.722     8.791
    12   6 C        2.920    -0.031    28.785     8.798
    13   6 C        2.918    -0.030    28.751     8.793
    14   6 C        2.920    -0.031    28.777     8.797
    15   1 H        0.926     0.036     2.505     2.475
    16   1 H        0.925     0.034     2.528     2.486
    17   1 H        0.926     0.027     2.628     2.535
    18   1 H        0.926     0.028     2.608     2.525
    19   1 H        0.926     0.028     2.618     2.530
    20   6 C        3.748    -0.046    21.462     6.608
    21   1 H        0.925     0.046     2.368     2.406
    22   1 H        0.926     0.040     2.444     2.445
    23   6 C        3.820    -0.098    22.344     6.727
    24   1 H        0.925     0.039     2.466     2.456
    25   1 H        0.925     0.041     2.435     2.440
    26   1 H        0.925     0.031     2.569     2.507

Wiberg/Mayer (AO) data.
largest (>0.10) Wiberg bond orders for each atom

     #   Z sym  total        # sym  WBO       # sym  WBO       # sym  WBO
 ---------------------------------------------------------------------------
     1  15 P    3.374 --    20 C    1.029     9 C    1.019     2 C    1.013
     2   6 C    3.994 --     1 P    1.013     5 C    1.012     4 H    0.957
                             3 H    0.956
     3   1 H    0.998 --     2 C    0.956
     4   1 H    0.998 --     2 C    0.957
     5   6 C    3.997 --     2 C    1.012     7 H    0.985     6 H    0.983
                             8 H    0.983
     6   1 H    0.999 --     5 C    0.983
     7   1 H    0.999 --     5 C    0.985
     8   1 H    0.999 --     5 C    0.983
     9   6 C    3.982 --    10 C    1.404    11 C    1.389     1 P    1.019
                            14 C    0.106
    10   6 C    3.993 --    12 C    1.439     9 C    1.404    15 H    0.961
                            13 C    0.107
    11   6 C    3.992 --    13 C    1.457     9 C    1.389    16 H    0.962
                            12 C    0.110
    12   6 C    3.993 --    14 C    1.442    10 C    1.439    17 H    0.970
                            11 C    0.110
    13   6 C    3.991 --    11 C    1.457    14 C    1.428    18 H    0.970
                            10 C    0.107
    14   6 C    3.992 --    12 C    1.442    13 C    1.428    19 H    0.971
                             9 C    0.106
    15   1 H    0.999 --    10 C    0.961
    16   1 H    0.999 --    11 C    0.962
    17   1 H    0.999 --    12 C    0.970
    18   1 H    0.999 --    13 C    0.970
    19   1 H    0.998 --    14 C    0.971
    20   6 C    3.994 --     1 P    1.029    23 C    1.016    22 H    0.956
                            21 H    0.950
    21   1 H    0.998 --    20 C    0.950
    22   1 H    0.998 --    20 C    0.956
    23   6 C    3.997 --    20 C    1.016    25 H    0.985    26 H    0.985
                            24 H    0.983
    24   1 H    0.998 --    23 C    0.983
    25   1 H    0.998 --    23 C    0.985
    26   1 H    0.999 --    23 C    0.985
 ---------------------------------------------------------------------------

molecular dipole:
                 x           y           z       tot (Debye)
 q only:       -0.064      -0.255      -0.184
   full:       -0.200      -0.599      -0.162       1.658

 projected vibrational frequencies (cm⁻¹)
eigval :       -0.00    -0.00    -0.00     0.00     0.00     0.00
eigval :       24.53    66.03    87.78   113.44   161.95   171.73
eigval :      200.80   222.16   249.03   264.85   312.36   362.13
eigval :      366.80   391.82   474.08   585.80   648.51   659.41
eigval :      679.37   689.65   736.94   760.47   769.68   872.63
eigval :      895.82   925.75   931.49   967.51   982.95   995.33
eigval :     1013.64  1017.28  1063.83  1077.63  1085.05  1115.14
eigval :     1123.61  1181.84  1203.99  1223.30  1230.50  1251.21
eigval :     1268.07  1280.55  1317.20  1408.06  1412.89  1421.41
eigval :     1449.39  1451.95  1461.25  1496.48  1499.38  1505.25
eigval :     1506.02  1577.95  1589.13  2936.37  2941.52  2950.37
eigval :     2956.42  3011.51  3012.27  3023.85  3025.91  3034.57
eigval :     3041.36  3056.27  3067.62  3074.41  3086.87  3094.01

   temp. (K)  partition function   enthalpy   heat capacity  entropy
                                   cal/mol     cal/K/mol   cal/K/mol   J/K/mol
 298.15  VIB  0.138E+05             6112.599     39.501     37.244
         ROT  0.116E+07              888.752      2.981     30.723
         INT  0.160E+11             7001.351     42.481     67.968
         TR   0.207E+28             1481.254      4.968     41.214
         TOT                        8482.6052    47.4496   109.1812   456.8141

       T/K    H(0)-H(T)+PV         H(T)/Eh          T*S/Eh         G(T)/Eh
   ------------------------------------------------------------------------
    298.15    0.135179E-01    0.232487E+00    0.518755E-01    0.180611E+00
   ------------------------------------------------------------------------

         :::::::::::::::::::::::::::::::::::::::::::::::::::::
         ::                  THERMODYNAMIC                  ::
         :::::::::::::::::::::::::::::::::::::::::::::::::::::
         :: total free energy         -31.375051530505 Eh   ::
         ::.................................................::
         :: total energy              -31.555662584692 Eh   ::
         :: zero point energy           0.218968673148 Eh   ::
         :: G(RRHO) w/o ZPVE           -0.038357618961 Eh   ::
         :: G(RRHO) contrib.            0.180611054188 Eh   ::
         :::::::::::::::::::::::::::::::::::::::::::::::::::::

           -------------------------------------------------
          | TOTAL ENERGY              -31.555662584692 Eh   |
          | TOTAL ENTHALPY            -31.323176019725 Eh   |
          | TOTAL FREE ENERGY         -31.375051530505 Eh   |
          | GRADIENT NORM               0.000033946941 Eh/α |
          | HOMO-LUMO GAP               3.647741863422 eV   |
           -------------------------------------------------

 * finished run on 2025/07/14 at 11:36:50.302
