   * xtb version 6.7.0 (08769fc) compiled by 'albert@albert-system' on 2024-03-04

   ID    Z sym.   atoms
    1   15 P      1
    2    6 C      2, 5, 9-14, 20, 23
    3    1 H      3, 4, 6-8, 15-19, 21, 22, 24-26

          program call               : /home/minenky/programs/xtb/xtb-dist/bin/xtb m1_00_PEt2Ph-PBE0-D3-TZ-uniMM_65.xyz --charge 0 --T --ohess extreme --cycles 5000 --acc 0.01 --iterations 5000
          :  Hamiltonian                  GFN2-xTB          :
 * total energy  :   -31.5256593 Eh     change        0.0000000E+00 Eh
 * total energy  :   -31.5394919 Eh     change       -0.1383263E-01 Eh
 * total energy  :   -31.5433044 Eh     change       -0.3812480E-02 Eh
 * total energy  :   -31.5450178 Eh     change       -0.1713468E-02 Eh
 * total energy  :   -31.5456657 Eh     change       -0.6478551E-03 Eh
 * total energy  :   -31.5459668 Eh     change       -0.3010895E-03 Eh
 * total energy  :   -31.5461634 Eh     change       -0.1966513E-03 Eh
 * total energy  :   -31.5463509 Eh     change       -0.1874318E-03 Eh
 * total energy  :   -31.5465588 Eh     change       -0.2079004E-03 Eh
 * total energy  :   -31.5467449 Eh     change       -0.1861110E-03 Eh
 * total energy  :   -31.5526320 Eh     change       -0.4728998E-06 Eh
 * total energy  :   -31.5526325 Eh     change       -0.4649332E-06 Eh
 * total energy  :   -31.5526330 Eh     change       -0.4608395E-06 Eh
 * total energy  :   -31.5526334 Eh     change       -0.4536552E-06 Eh
 * total energy  :   -31.5526339 Eh     change       -0.4503755E-06 Eh
 * total energy  :   -31.5526343 Eh     change       -0.4431889E-06 Eh
 * total energy  :   -31.5526347 Eh     change       -0.4388447E-06 Eh
 * total energy  :   -31.5526352 Eh     change       -0.4307700E-06 Eh
 * total energy  :   -31.5526352 Eh     change       -0.3338457E-08 Eh
   *** GEOMETRY OPTIMIZATION CONVERGED AFTER 185 ITERATIONS ***

 final structure:
================
26
 xtb: 6.7.0 (08769fc)
P            1.76689655736606       -0.24148392594270       -3.03935862681271
C            0.96004820845563       -0.71023819644355       -4.66113981254081
H            1.45608123974768       -1.63074590908650       -4.98358668237021
H           -0.06485721681203       -0.98850745443899       -4.39352036595731
C            0.91023914439781        0.30295613805107       -5.79967656288683
H            1.89546119231073        0.68975923006408       -6.04834038410092
H            0.26892819676791        1.14287157350477       -5.54425445976803
H            0.49895425558287       -0.17444622976450       -6.68858699967292
C            3.56348116986846       -0.35078711758587       -3.40991360778113
C            4.13107773240132       -0.56485943592399       -4.65957422136012
C            4.40333950929121       -0.24873360752012       -2.30234920788824
C            5.50657147358236       -0.63318008827631       -4.80022860215180
C            5.77634733266777       -0.31014211700768       -2.44368545702503
C            6.33277531041738       -0.49643017127610       -3.69839928337972
H            3.51016311833426       -0.68907705474488       -5.53309767137092
H            3.96319109633546       -0.13119314744064       -1.32115990334637
H            5.93539861728106       -0.79530740263847       -5.77922149918841
H            6.41389488348501       -0.22168899159884       -1.57558346779606
H            7.40550721896435       -0.54692212230220       -3.81520350293732
C            1.59591928480090        1.62008432264853       -3.11359529021072
H            2.07121327378350        2.00127835738233       -4.02029832651150
H            0.52235241610657        1.82291625082512       -3.16569775534255
C            2.18566651708056        2.30053381831464       -1.88703043121345
H            3.26453514633509        2.16327090923531       -1.85289415131691
H            1.75569405510368        1.88849708952255       -0.97601655920696
H            1.97874826634241        3.36946628243919       -1.91279216786193

          :  Hamiltonian                  GFN2-xTB          :
         :: gradient norm              0.000047157144 Eh/a0 ::
         :: HOMO-LUMO gap              3.637679464985 eV    ::
         :: SCC energy               -32.072963767152 Eh    ::
         :: -> dispersion             -0.024182583293 Eh    ::
         :: repulsion energy           0.520328590238 Eh    ::

    * Orbital Energies and Occupations

         #    Occupation            Energy/Eh            Energy/eV
      -------------------------------------------------------------
         1        2.0000           -0.6578019             -17.8997
       ...           ...                  ...                  ...
        18        2.0000           -0.4749452             -12.9239
        19        2.0000           -0.4731639             -12.8754
        20        2.0000           -0.4666563             -12.6984
        21        2.0000           -0.4608867             -12.5414
        22        2.0000           -0.4563740             -12.4186
        23        2.0000           -0.4435581             -12.0698
        24        2.0000           -0.4415050             -12.0140
        25        2.0000           -0.4234871             -11.5237
        26        2.0000           -0.4156419             -11.3102
        27        2.0000           -0.4054939             -11.0341
        28        2.0000           -0.4021774             -10.9438
        29        2.0000           -0.3975572             -10.8181
        30        2.0000           -0.3633933              -9.8884 (HOMO)
        31                         -0.2297111              -6.2508 (LUMO)
        32                         -0.2212332              -6.0201
        33                         -0.1565006              -4.2586
        34                         -0.1500433              -4.0829
        35                         -0.0924871              -2.5167
        36                         -0.0116817              -0.3179
        37                          0.0648598               1.7649
        38                          0.0900161               2.4495
        39                          0.1148722               3.1258
        40                          0.1227124               3.3392
        41                          0.1346024               3.6627
       ...                                ...                  ...
        64                          0.7724360              21.0191
      -------------------------------------------------------------
                  HL-Gap            0.1336823 Eh            3.6377 eV

     #   Z          covCN         q      C6AA      α(0)
     1  15 P        3.005    -0.118   165.592    23.118
     2   6 C        3.747    -0.048    21.499     6.614
     3   1 H        0.926     0.044     2.399     2.422
     4   1 H        0.926     0.039     2.465     2.455
     5   6 C        3.769    -0.095    22.343     6.736
     6   1 H        0.925     0.039     2.468     2.457
     7   1 H        0.925     0.037     2.495     2.470
     8   1 H        0.925     0.033     2.546     2.495
     9   6 C        2.915     0.010    27.801     8.646
    10   6 C        2.954    -0.033    28.821     8.805
    11   6 C        3.035    -0.031    28.736     8.793
    12   6 C        2.920    -0.031    28.785     8.798
    13   6 C        2.918    -0.030    28.759     8.794
    14   6 C        2.920    -0.030    28.760     8.794
    15   1 H        0.926     0.036     2.503     2.474
    16   1 H        0.925     0.038     2.476     2.461
    17   1 H        0.926     0.027     2.633     2.538
    18   1 H        0.926     0.028     2.613     2.528
    19   1 H        0.926     0.028     2.620     2.531
    20   6 C        3.748    -0.043    21.416     6.601
    21   1 H        0.925     0.046     2.368     2.406
    22   1 H        0.926     0.042     2.425     2.435
    23   6 C        3.808    -0.098    22.369     6.733
    24   1 H        0.925     0.039     2.459     2.452
    25   1 H        0.925     0.041     2.429     2.437
    26   1 H        0.925     0.033     2.546     2.495

Wiberg/Mayer (AO) data.
largest (>0.10) Wiberg bond orders for each atom

     #   Z sym  total        # sym  WBO       # sym  WBO       # sym  WBO
 ---------------------------------------------------------------------------
     1  15 P    3.363 --     2 C    1.028     9 C    1.016    20 C    1.012
     2   6 C    3.991 --     1 P    1.028     5 C    1.010     4 H    0.959
                             3 H    0.953
     3   1 H    0.998 --     2 C    0.953
     4   1 H    0.998 --     2 C    0.959
     5   6 C    3.997 --     2 C    1.010     7 H    0.986     8 H    0.983
                             6 H    0.981
     6   1 H    0.999 --     5 C    0.981
     7   1 H    0.999 --     5 C    0.986
     8   1 H    0.999 --     5 C    0.983
     9   6 C    3.982 --    10 C    1.404    11 C    1.393     1 P    1.016
                            14 C    0.106
    10   6 C    3.992 --    12 C    1.442     9 C    1.404    15 H    0.961
                            13 C    0.108
    11   6 C    3.992 --    13 C    1.452     9 C    1.393    16 H    0.962
                            12 C    0.109
    12   6 C    3.992 --    10 C    1.442    14 C    1.439    17 H    0.970
                            11 C    0.109
    13   6 C    3.991 --    11 C    1.452    14 C    1.432    18 H    0.970
                            10 C    0.108
    14   6 C    3.992 --    12 C    1.439    13 C    1.432    19 H    0.971
                             9 C    0.106
    15   1 H    0.999 --    10 C    0.961
    16   1 H    0.999 --    11 C    0.962
    17   1 H    0.999 --    12 C    0.970
    18   1 H    0.999 --    13 C    0.970
    19   1 H    0.999 --    14 C    0.971
    20   6 C    3.996 --    23 C    1.017     1 P    1.012    22 H    0.956
                            21 H    0.953
    21   1 H    0.998 --    20 C    0.953
    22   1 H    0.997 --    20 C    0.956
    23   6 C    3.996 --    20 C    1.017    25 H    0.985    26 H    0.984
                            24 H    0.983
    24   1 H    0.998 --    23 C    0.983
    25   1 H    0.998 --    23 C    0.985
    26   1 H    0.999 --    23 C    0.984
 ---------------------------------------------------------------------------

molecular dipole:
                 x           y           z       tot (Debye)
 q only:       -0.075       0.241      -0.210
   full:        0.072       0.403      -0.527       1.696

 projected vibrational frequencies (cm⁻¹)
eigval :       -0.00    -0.00    -0.00    -0.00    -0.00     0.00
eigval :       22.00    74.95   108.97   128.78   164.89   176.17
eigval :      217.48   229.43   253.00   261.15   287.65   365.76
eigval :      378.56   409.27   460.75   585.63   643.80   660.26
eigval :      682.61   688.04   736.68   749.28   779.14   876.81
eigval :      900.78   928.43   933.70   968.14   990.99   998.99
eigval :     1017.72  1020.17  1061.12  1080.67  1084.67  1115.32
eigval :     1121.20  1181.52  1202.15  1228.80  1232.71  1247.86
eigval :     1276.36  1283.85  1316.08  1408.80  1410.77  1421.43
eigval :     1442.80  1455.58  1462.86  1497.63  1503.17  1505.45
eigval :     1512.61  1578.19  1588.99  2928.63  2941.89  2948.30
eigval :     2950.98  3008.06  3012.32  3025.32  3031.27  3034.23
eigval :     3042.30  3058.08  3066.87  3073.86  3086.57  3099.74

   temp. (K)  partition function   enthalpy   heat capacity  entropy
                                   cal/mol     cal/K/mol   cal/K/mol   J/K/mol
 298.15  VIB  0.979E+04             6033.425     39.519     36.312
         ROT  0.117E+07              888.752      2.981     30.749
         INT  0.115E+11             6922.177     42.500     67.061
         TR   0.207E+28             1481.254      4.968     41.214
         TOT                        8403.4310    47.4685   108.2745   453.0207

       T/K    H(0)-H(T)+PV         H(T)/Eh          T*S/Eh         G(T)/Eh
   ------------------------------------------------------------------------
    298.15    0.133917E-01    0.232618E+00    0.514447E-01    0.181173E+00
   ------------------------------------------------------------------------

         :::::::::::::::::::::::::::::::::::::::::::::::::::::
         ::                  THERMODYNAMIC                  ::
         :::::::::::::::::::::::::::::::::::::::::::::::::::::
         :: total free energy         -31.371462398347 Eh   ::
         ::.................................................::
         :: total energy              -31.552635176914 Eh   ::
         :: zero point energy           0.219225789379 Eh   ::
         :: G(RRHO) w/o ZPVE           -0.038053010812 Eh   ::
         :: G(RRHO) contrib.            0.181172778567 Eh   ::
         :::::::::::::::::::::::::::::::::::::::::::::::::::::

           -------------------------------------------------
          | TOTAL ENERGY              -31.552635176914 Eh   |
          | TOTAL ENTHALPY            -31.320017667772 Eh   |
          | TOTAL FREE ENERGY         -31.371462398347 Eh   |
          | GRADIENT NORM               0.000047157142 Eh/α |
          | HOMO-LUMO GAP               3.637679444647 eV   |
           -------------------------------------------------

 * finished run on 2025/07/14 at 11:37:07.932
