   * xtb version 6.7.0 (08769fc) compiled by 'albert@albert-system' on 2024-03-04

   ID    Z sym.   atoms
    1   15 P      1
    2    6 C      2, 5, 9-14, 20, 23
    3    1 H      3, 4, 6-8, 15-19, 21, 22, 24-26

          program call               : /home/minenky/programs/xtb/xtb-dist/bin/xtb m1_00_PEt2Ph-PBE0-D3-TZ-uniMM_15.xyz --charge 0 --T --ohess extreme --cycles 5000 --acc 0.01 --iterations 5000
          :  Hamiltonian                  GFN2-xTB          :
 * total energy  :   -31.5487838 Eh     change       -0.2060574E-12 Eh
 * total energy  :   -31.5523799 Eh     change       -0.3596104E-02 Eh
 * total energy  :   -31.5529625 Eh     change       -0.5826335E-03 Eh
 * total energy  :   -31.5534100 Eh     change       -0.4474294E-03 Eh
 * total energy  :   -31.5537631 Eh     change       -0.3531227E-03 Eh
 * total energy  :   -31.5541198 Eh     change       -0.3567081E-03 Eh
 * total energy  :   -31.5544824 Eh     change       -0.3626502E-03 Eh
 * total energy  :   -31.5548600 Eh     change       -0.3776149E-03 Eh
 * total energy  :   -31.5552268 Eh     change       -0.3667784E-03 Eh
 * total energy  :   -31.5555467 Eh     change       -0.3198940E-03 Eh
 * total energy  :   -31.5560247 Eh     change       -0.1028918E-06 Eh
 * total energy  :   -31.5560249 Eh     change       -0.1276722E-06 Eh
 * total energy  :   -31.5560249 Eh     change       -0.3095428E-07 Eh
 * total energy  :   -31.5560250 Eh     change       -0.9267076E-07 Eh
 * total energy  :   -31.5560251 Eh     change       -0.1333774E-06 Eh
 * total energy  :   -31.5560252 Eh     change       -0.9259130E-07 Eh
 * total energy  :   -31.5560253 Eh     change       -0.8867227E-07 Eh
 * total energy  :   -31.5560254 Eh     change       -0.9728094E-07 Eh
 * total energy  :   -31.5560254 Eh     change       -0.1980368E-08 Eh
   *** GEOMETRY OPTIMIZATION CONVERGED AFTER 44 ITERATIONS ***

 final structure:
================
26
 xtb: 6.7.0 (08769fc)
P            1.59641232368569       -0.25245418044508       -2.79969903131942
C            0.66713080212124       -1.50095230434008       -3.83354133728199
H            1.19969917422401       -1.70392029137356       -4.76620873355464
H            0.61578062567680       -2.42650392230209       -3.25344766994360
C           -0.74089665673733       -1.00284475181301       -4.13648657316157
H           -0.70862631798037       -0.08033706979008       -4.71301896458874
H           -1.28054124608600       -0.80607955180157       -3.21248511944525
H           -1.29526067429459       -1.74476420782293       -4.70907498086645
C            3.10332224170695       -1.22236827788524       -2.38023776679383
C            3.68970911192230       -0.95762697275674       -1.14704399298013
C            3.69001889893360       -2.16575982671395       -3.21551854711315
C            4.84210851558395       -1.61466305876370       -0.75561931551795
C            4.83908064631059       -2.82733847951800       -2.82201101571704
C            5.41871240491459       -2.55313883613319       -1.59424053711407
H            3.22991936951081       -0.22671125706206       -0.49585226472999
H            3.25449553033205       -2.39090765153167       -4.17816780632598
H            5.28959876791247       -1.39728978592066        0.20358527755113
H            5.28695865039692       -3.56032481903347       -3.47821056688104
H            6.31735030090969       -3.07145151726947       -1.29280184567117
C            2.33590688541617        0.75314999061295       -4.19019000784729
H            2.84706571453571        0.08647464361612       -4.89125324238186
H            1.50884073595709        1.23952952939392       -4.71457804549530
C            3.29964334020988        1.80186127574981       -3.65402991191508
H            4.12956337845667        1.32545289711879       -3.13426139478170
H            2.79239800888544        2.46141199101643       -2.95262149326786
H            3.70197646749511        2.40520343476952       -4.46625211285639

          :  Hamiltonian                  GFN2-xTB          :
         :: gradient norm              0.000033077871 Eh/a0 ::
         :: HOMO-LUMO gap              3.665923250836 eV    ::
         :: SCC energy               -32.076552896305 Eh    ::
         :: -> dispersion             -0.023582799194 Eh    ::
         :: repulsion energy           0.520527500810 Eh    ::

    * Orbital Energies and Occupations

         #    Occupation            Energy/Eh            Energy/eV
      -------------------------------------------------------------
         1        2.0000           -0.6580434             -17.9063
       ...           ...                  ...                  ...
        18        2.0000           -0.4773044             -12.9881
        19        2.0000           -0.4745195             -12.9123
        20        2.0000           -0.4632919             -12.6068
        21        2.0000           -0.4617802             -12.5657
        22        2.0000           -0.4524630             -12.3121
        23        2.0000           -0.4446070             -12.0984
        24        2.0000           -0.4381617             -11.9230
        25        2.0000           -0.4230484             -11.5117
        26        2.0000           -0.4182636             -11.3815
        27        2.0000           -0.4045631             -11.0087
        28        2.0000           -0.4040598             -10.9950
        29        2.0000           -0.3968689             -10.7994
        30        2.0000           -0.3672899              -9.9945 (HOMO)
        31                         -0.2325697              -6.3285 (LUMO)
        32                         -0.2227634              -6.0617
        33                         -0.1561468              -4.2490
        34                         -0.1513595              -4.1187
        35                         -0.0928239              -2.5259
        36                         -0.0020448              -0.0556
        37                          0.0592777               1.6130
        38                          0.0915372               2.4909
        39                          0.1095199               2.9802
        40                          0.1326834               3.6105
        41                          0.1365085               3.7146
       ...                                ...                  ...
        64                          0.7811771              21.2569
      -------------------------------------------------------------
                  HL-Gap            0.1347202 Eh            3.6659 eV

     #   Z          covCN         q      C6AA      α(0)
     1  15 P        3.057    -0.114   165.385    23.102
     2   6 C        3.748    -0.048    21.494     6.613
     3   1 H        0.925     0.041     2.432     2.439
     4   1 H        0.925     0.040     2.449     2.447
     5   6 C        3.823    -0.098    22.350     6.728
     6   1 H        0.925     0.036     2.497     2.471
     7   1 H        0.925     0.042     2.421     2.433
     8   1 H        0.925     0.033     2.548     2.496
     9   6 C        2.916     0.008    27.846     8.653
    10   6 C        3.019    -0.030    28.730     8.792
    11   6 C        2.960    -0.030    28.739     8.793
    12   6 C        2.918    -0.030    28.748     8.792
    13   6 C        2.919    -0.031    28.769     8.796
    14   6 C        2.920    -0.029    28.735     8.791
    15   1 H        0.925     0.039     2.457     2.451
    16   1 H        0.926     0.032     2.563     2.503
    17   1 H        0.926     0.030     2.586     2.515
    18   1 H        0.926     0.028     2.612     2.527
    19   1 H        0.926     0.029     2.599     2.521
    20   6 C        3.748    -0.045    21.447     6.605
    21   1 H        0.925     0.042     2.419     2.432
    22   1 H        0.925     0.040     2.450     2.447
    23   6 C        3.819    -0.097    22.333     6.726
    24   1 H        0.925     0.036     2.503     2.474
    25   1 H        0.925     0.042     2.425     2.435
    26   1 H        0.925     0.032     2.551     2.498

Wiberg/Mayer (AO) data.
largest (>0.10) Wiberg bond orders for each atom

     #   Z sym  total        # sym  WBO       # sym  WBO       # sym  WBO
 ---------------------------------------------------------------------------
     1  15 P    3.344 --     2 C    1.027    20 C    1.020     9 C    1.008
     2   6 C    3.995 --     1 P    1.027     5 C    1.016     4 H    0.960
                             3 H    0.951
     3   1 H    0.998 --     2 C    0.951
     4   1 H    0.998 --     2 C    0.960
     5   6 C    3.996 --     2 C    1.016     7 H    0.985     8 H    0.985
                             6 H    0.984
     6   1 H    0.999 --     5 C    0.984
     7   1 H    0.998 --     5 C    0.985
     8   1 H    0.998 --     5 C    0.985
     9   6 C    3.983 --    10 C    1.406    11 C    1.400     1 P    1.008
                            14 C    0.108
    10   6 C    3.991 --    12 C    1.444     9 C    1.406    15 H    0.964
                            13 C    0.109
    11   6 C    3.993 --    13 C    1.448     9 C    1.400    16 H    0.963
                            12 C    0.110
    12   6 C    3.992 --    10 C    1.444    14 C    1.439    17 H    0.970
                            11 C    0.110
    13   6 C    3.993 --    11 C    1.448    14 C    1.434    18 H    0.970
                            10 C    0.109
    14   6 C    3.990 --    12 C    1.439    13 C    1.434    19 H    0.971
                             9 C    0.108
    15   1 H    0.998 --    10 C    0.964
    16   1 H    0.999 --    11 C    0.963
    17   1 H    0.999 --    12 C    0.970
    18   1 H    0.999 --    13 C    0.970
    19   1 H    0.998 --    14 C    0.971
    20   6 C    3.996 --     1 P    1.020    23 C    1.017    22 H    0.957
                            21 H    0.952
    21   1 H    0.998 --    20 C    0.952
    22   1 H    0.998 --    20 C    0.957
    23   6 C    3.997 --    20 C    1.017    25 H    0.985    26 H    0.984
                            24 H    0.984
    24   1 H    0.999 --    23 C    0.984
    25   1 H    0.998 --    23 C    0.985
    26   1 H    0.999 --    23 C    0.984
 ---------------------------------------------------------------------------

molecular dipole:
                 x           y           z       tot (Debye)
 q only:        0.047      -0.023      -0.244
   full:        0.256      -0.223      -0.537       1.613

 projected vibrational frequencies (cm⁻¹)
eigval :       -0.00    -0.00    -0.00     0.00     0.00     0.00
eigval :       10.67    52.81    71.98    99.55   131.47   159.43
eigval :      199.29   214.99   232.59   266.25   290.97   333.85
eigval :      361.58   429.18   452.24   586.03   656.92   661.89
eigval :      687.26   698.93   735.85   762.17   779.20   873.57
eigval :      898.02   926.23   932.62   969.16   977.11   993.96
eigval :     1012.33  1018.70  1071.15  1077.17  1083.44  1117.40
eigval :     1120.83  1181.62  1198.19  1224.44  1229.49  1251.12
eigval :     1252.30  1279.98  1315.43  1409.62  1410.75  1423.34
eigval :     1438.65  1448.23  1457.33  1497.25  1498.84  1501.02
eigval :     1502.53  1579.64  1589.41  2925.81  2936.29  2948.03
eigval :     2951.06  3013.81  3014.37  3019.92  3024.60  3029.88
eigval :     3033.52  3062.08  3066.06  3074.25  3080.02  3088.02

   temp. (K)  partition function   enthalpy   heat capacity  entropy
                                   cal/mol     cal/K/mol   cal/K/mol   J/K/mol
 298.15  VIB  0.651E+05             6273.468     39.253     39.507
         ROT  0.122E+07              888.752      2.981     30.837
         INT  0.797E+11             7162.220     42.234     70.344
         TR   0.207E+28             1481.254      4.968     41.214
         TOT                        8643.4742    47.2022   111.5577   466.7573

       T/K    H(0)-H(T)+PV         H(T)/Eh          T*S/Eh         G(T)/Eh
   ------------------------------------------------------------------------
    298.15    0.137743E-01    0.232259E+00    0.530046E-01    0.179254E+00
   ------------------------------------------------------------------------

         :::::::::::::::::::::::::::::::::::::::::::::::::::::
         ::                  THERMODYNAMIC                  ::
         :::::::::::::::::::::::::::::::::::::::::::::::::::::
         :: total free energy         -31.376771129984 Eh   ::
         ::.................................................::
         :: total energy              -31.556025395495 Eh   ::
         :: zero point energy           0.218484661590 Eh   ::
         :: G(RRHO) w/o ZPVE           -0.039230396080 Eh   ::
         :: G(RRHO) contrib.            0.179254265511 Eh   ::
         :::::::::::::::::::::::::::::::::::::::::::::::::::::

           -------------------------------------------------
          | TOTAL ENERGY              -31.556025395495 Eh   |
          | TOTAL ENTHALPY            -31.323766481035 Eh   |
          | TOTAL FREE ENERGY         -31.376771129984 Eh   |
          | GRADIENT NORM               0.000033078378 Eh/α |
          | HOMO-LUMO GAP               3.665923281628 eV   |
           -------------------------------------------------

 * finished run on 2025/07/14 at 11:27:14.559
