   * xtb version 6.7.0 (08769fc) compiled by 'albert@albert-system' on 2024-03-04

   ID    Z sym.   atoms
    1   15 P      1
    2    6 C      2, 5, 9-14, 20, 23
    3    1 H      3, 4, 6-8, 15-19, 21, 22, 24-26

          program call               : /home/minenky/programs/xtb/xtb-dist/bin/xtb m1_00_PEt2Ph-PBE0-D3-TZ-uniMM_38.xyz --charge 0 --T --ohess extreme --cycles 5000 --acc 0.01 --iterations 5000
          :  Hamiltonian                  GFN2-xTB          :
 * total energy  :   -31.5421730 Eh     change       -0.1563194E-12 Eh
 * total energy  :   -31.5484477 Eh     change       -0.6274725E-02 Eh
 * total energy  :   -31.5501994 Eh     change       -0.1751617E-02 Eh
 * total energy  :   -31.5511697 Eh     change       -0.9703713E-03 Eh
 * total energy  :   -31.5516179 Eh     change       -0.4481727E-03 Eh
 * total energy  :   -31.5518995 Eh     change       -0.2816290E-03 Eh
 * total energy  :   -31.5520928 Eh     change       -0.1932540E-03 Eh
 * total energy  :   -31.5522069 Eh     change       -0.1141506E-03 Eh
 * total energy  :   -31.5523126 Eh     change       -0.1056978E-03 Eh
 * total energy  :   -31.5523980 Eh     change       -0.8539839E-04 Eh
 * total energy  :   -31.5526302 Eh     change       -0.5278754E-06 Eh
 * total energy  :   -31.5526307 Eh     change       -0.5056362E-06 Eh
 * total energy  :   -31.5526312 Eh     change       -0.4983191E-06 Eh
 * total energy  :   -31.5526316 Eh     change       -0.4796897E-06 Eh
 * total energy  :   -31.5526321 Eh     change       -0.4725458E-06 Eh
 * total energy  :   -31.5526326 Eh     change       -0.4565112E-06 Eh
 * total energy  :   -31.5526330 Eh     change       -0.4479921E-06 Eh
 * total energy  :   -31.5526335 Eh     change       -0.4339544E-06 Eh
 * total energy  :   -31.5526335 Eh     change       -0.3727148E-08 Eh
   *** GEOMETRY OPTIMIZATION CONVERGED AFTER 122 ITERATIONS ***

 final structure:
================
26
 xtb: 6.7.0 (08769fc)
P            1.65441538437949       -0.24381467869127       -3.03302027525210
C            0.09170223133247        0.42781168280910       -2.25326299479148
H            0.41604631346283        0.97156949623888       -1.36080379206340
H           -0.27170847295785        1.18159575400392       -2.95982551573192
C           -1.05368707464945       -0.52195441108745       -1.91964521847304
H           -0.73130058754575       -1.34967795294218       -1.29270871451210
H           -1.49450638158634       -0.93180794668766       -2.82500733109787
H           -1.83083074379729        0.02478506315268       -1.38639363404860
C            2.53018797993738       -1.03110202980219       -1.62225975355509
C            3.83828702597879       -1.43226431670905       -1.88754724244842
C            2.02382544453722       -1.21264098424190       -0.34153451903152
C            4.60564746363168       -2.04242911496398       -0.91401154102166
C            2.79507802385240       -1.81792582260908        0.63582117521754
C            4.08120851452391       -2.24311983047658        0.35220407018750
H            4.25274954190168       -1.24849597735427       -2.86975979354119
H            1.02963907769017       -0.87800743390709       -0.08928505125115
H            5.61578220974898       -2.35433198720080       -1.13814153356175
H            2.38707319125318       -1.95749349447929        1.62711236744191
H            4.67674578875694       -2.71812304844784        1.11813828277352
C            0.98379745800089       -1.79965203099539       -3.82656138822662
H            0.50879108184568       -2.42807467503341       -3.06974102740355
H            0.22326925020674       -1.47106488539897       -4.54071247366845
C            2.06484030561092       -2.58389579947462       -4.55566417438931
H            2.79778524215766       -2.97327413348997       -3.85198036517970
H            2.57933255978380       -1.94973296630267       -5.27519842043471
H            1.62514617194395       -3.42480747590912       -5.09010213593682

          :  Hamiltonian                  GFN2-xTB          :
         :: gradient norm              0.000049823357 Eh/a0 ::
         :: HOMO-LUMO gap              3.637633237199 eV    ::
         :: SCC energy               -32.072961033224 Eh    ::
         :: -> dispersion             -0.024183385674 Eh    ::
         :: repulsion energy           0.520327569826 Eh    ::

    * Orbital Energies and Occupations

         #    Occupation            Energy/Eh            Energy/eV
      -------------------------------------------------------------
         1        2.0000           -0.6577986             -17.8996
       ...           ...                  ...                  ...
        18        2.0000           -0.4749523             -12.9241
        19        2.0000           -0.4731634             -12.8754
        20        2.0000           -0.4666533             -12.6983
        21        2.0000           -0.4608918             -12.5415
        22        2.0000           -0.4563741             -12.4186
        23        2.0000           -0.4435661             -12.0700
        24        2.0000           -0.4414925             -12.0136
        25        2.0000           -0.4234796             -11.5235
        26        2.0000           -0.4156629             -11.3108
        27        2.0000           -0.4054754             -11.0335
        28        2.0000           -0.4021864             -10.9440
        29        2.0000           -0.3975466             -10.8178
        30        2.0000           -0.3633994              -9.8886 (HOMO)
        31                         -0.2297189              -6.2510 (LUMO)
        32                         -0.2212401              -6.0203
        33                         -0.1564514              -4.2573
        34                         -0.1501115              -4.0847
        35                         -0.0924887              -2.5167
        36                         -0.0117404              -0.3195
        37                          0.0647913               1.7631
        38                          0.0901248               2.4524
        39                          0.1147821               3.1234
        40                          0.1227657               3.3406
        41                          0.1346641               3.6644
       ...                                ...                  ...
        64                          0.7723720              21.0173
      -------------------------------------------------------------
                  HL-Gap            0.1336806 Eh            3.6376 eV

     #   Z          covCN         q      C6AA      α(0)
     1  15 P        3.005    -0.118   165.594    23.118
     2   6 C        3.747    -0.048    21.499     6.614
     3   1 H        0.926     0.044     2.399     2.422
     4   1 H        0.926     0.039     2.465     2.455
     5   6 C        3.769    -0.095    22.343     6.736
     6   1 H        0.925     0.038     2.469     2.457
     7   1 H        0.925     0.037     2.495     2.470
     8   1 H        0.925     0.033     2.546     2.495
     9   6 C        2.915     0.010    27.801     8.646
    10   6 C        3.035    -0.031    28.736     8.793
    11   6 C        2.954    -0.033    28.820     8.805
    12   6 C        2.918    -0.030    28.759     8.794
    13   6 C        2.920    -0.031    28.785     8.798
    14   6 C        2.920    -0.030    28.760     8.794
    15   1 H        0.925     0.038     2.476     2.461
    16   1 H        0.926     0.036     2.503     2.474
    17   1 H        0.926     0.028     2.613     2.528
    18   1 H        0.926     0.027     2.633     2.538
    19   1 H        0.926     0.028     2.620     2.531
    20   6 C        3.748    -0.043    21.416     6.601
    21   1 H        0.925     0.046     2.368     2.406
    22   1 H        0.926     0.042     2.425     2.435
    23   6 C        3.808    -0.098    22.368     6.732
    24   1 H        0.925     0.039     2.459     2.452
    25   1 H        0.925     0.042     2.429     2.437
    26   1 H        0.925     0.033     2.546     2.495

Wiberg/Mayer (AO) data.
largest (>0.10) Wiberg bond orders for each atom

     #   Z sym  total        # sym  WBO       # sym  WBO       # sym  WBO
 ---------------------------------------------------------------------------
     1  15 P    3.363 --     2 C    1.028     9 C    1.016    20 C    1.012
     2   6 C    3.991 --     1 P    1.028     5 C    1.010     4 H    0.959
                             3 H    0.953
     3   1 H    0.998 --     2 C    0.953
     4   1 H    0.998 --     2 C    0.959
     5   6 C    3.997 --     2 C    1.010     7 H    0.986     8 H    0.983
                             6 H    0.981
     6   1 H    0.999 --     5 C    0.981
     7   1 H    0.999 --     5 C    0.986
     8   1 H    0.999 --     5 C    0.983
     9   6 C    3.982 --    11 C    1.404    10 C    1.393     1 P    1.016
                            14 C    0.106
    10   6 C    3.992 --    12 C    1.452     9 C    1.393    15 H    0.962
                            13 C    0.109
    11   6 C    3.992 --    13 C    1.442     9 C    1.404    16 H    0.961
                            12 C    0.108
    12   6 C    3.991 --    10 C    1.452    14 C    1.432    17 H    0.970
                            11 C    0.108
    13   6 C    3.992 --    11 C    1.442    14 C    1.439    18 H    0.970
                            10 C    0.109
    14   6 C    3.992 --    13 C    1.439    12 C    1.432    19 H    0.971
                             9 C    0.106
    15   1 H    0.999 --    10 C    0.962
    16   1 H    0.999 --    11 C    0.961
    17   1 H    0.999 --    12 C    0.970
    18   1 H    0.999 --    13 C    0.970
    19   1 H    0.999 --    14 C    0.971
    20   6 C    3.996 --    23 C    1.017     1 P    1.012    22 H    0.956
                            21 H    0.953
    21   1 H    0.998 --    20 C    0.953
    22   1 H    0.997 --    20 C    0.956
    23   6 C    3.996 --    20 C    1.017    25 H    0.985    26 H    0.984
                            24 H    0.983
    24   1 H    0.998 --    23 C    0.983
    25   1 H    0.998 --    23 C    0.985
    26   1 H    0.999 --    23 C    0.984
 ---------------------------------------------------------------------------

molecular dipole:
                 x           y           z       tot (Debye)
 q only:       -0.267      -0.192       0.000
   full:       -0.452      -0.427       0.241       1.696

 projected vibrational frequencies (cm⁻¹)
eigval :       -0.00    -0.00     0.00     0.00     0.00     0.00
eigval :       21.89    74.84   109.03   128.68   164.83   175.77
eigval :      217.56   229.21   252.94   261.17   287.69   365.68
eigval :      378.49   409.23   460.63   585.65   643.79   660.23
eigval :      682.65   688.04   736.62   749.26   779.16   876.74
eigval :      900.71   928.37   933.66   968.16   990.94   998.99
eigval :     1017.70  1020.18  1061.14  1080.64  1084.64  1115.39
eigval :     1121.21  1181.53  1202.15  1228.79  1232.69  1247.80
eigval :     1276.36  1283.94  1316.07  1408.68  1410.72  1421.37
eigval :     1442.77  1455.61  1462.86  1497.66  1503.15  1505.43
eigval :     1512.58  1578.19  1589.03  2928.61  2941.95  2948.26
eigval :     2950.91  3008.04  3012.43  3025.26  3031.00  3034.23
eigval :     3042.24  3058.05  3066.84  3073.88  3086.45  3099.79

   temp. (K)  partition function   enthalpy   heat capacity  entropy
                                   cal/mol     cal/K/mol   cal/K/mol   J/K/mol
 298.15  VIB  0.987E+04             6034.605     39.520     36.325
         ROT  0.117E+07              888.752      2.981     30.749
         INT  0.116E+11             6923.357     42.501     67.074
         TR   0.207E+28             1481.254      4.968     41.214
         TOT                        8404.6109    47.4690   108.2879   453.0768

       T/K    H(0)-H(T)+PV         H(T)/Eh          T*S/Eh         G(T)/Eh
   ------------------------------------------------------------------------
    298.15    0.133936E-01    0.232614E+00    0.514511E-01    0.181163E+00
   ------------------------------------------------------------------------

         :::::::::::::::::::::::::::::::::::::::::::::::::::::
         ::                  THERMODYNAMIC                  ::
         :::::::::::::::::::::::::::::::::::::::::::::::::::::
         :: total free energy         -31.371470099844 Eh   ::
         ::.................................................::
         :: total energy              -31.552633463398 Eh   ::
         :: zero point energy           0.219220861915 Eh   ::
         :: G(RRHO) w/o ZPVE           -0.038057498361 Eh   ::
         :: G(RRHO) contrib.            0.181163363553 Eh   ::
         :::::::::::::::::::::::::::::::::::::::::::::::::::::

           -------------------------------------------------
          | TOTAL ENERGY              -31.552633463398 Eh   |
          | TOTAL ENTHALPY            -31.320019001447 Eh   |
          | TOTAL FREE ENERGY         -31.371470099844 Eh   |
          | GRADIENT NORM               0.000049823210 Eh/α |
          | HOMO-LUMO GAP               3.637633270852 eV   |
           -------------------------------------------------

 * finished run on 2025/07/14 at 11:31:38.812
