   * xtb version 6.7.0 (08769fc) compiled by 'albert@albert-system' on 2024-03-04

   ID    Z sym.   atoms
    1   15 P      1
    2    6 C      2, 5, 9-14, 20, 23
    3    1 H      3, 4, 6-8, 15-19, 21, 22, 24-26

          program call               : /home/minenky/programs/xtb/xtb-dist/bin/xtb m1_00_PEt2Ph-PBE0-D3-TZ-uniMM_4.xyz --charge 0 --T --ohess extreme --cycles 5000 --acc 0.01 --iterations 5000
          :  Hamiltonian                  GFN2-xTB          :
 * total energy  :   -31.5508741 Eh     change       -0.4263256E-13 Eh
 * total energy  :   -31.5522081 Eh     change       -0.1333979E-02 Eh
 * total energy  :   -31.5524183 Eh     change       -0.2102280E-03 Eh
 * total energy  :   -31.5524715 Eh     change       -0.5323271E-04 Eh
 * total energy  :   -31.5525136 Eh     change       -0.4206518E-04 Eh
 * total energy  :   -31.5525486 Eh     change       -0.3505210E-04 Eh
 * total energy  :   -31.5526233 Eh     change       -0.7468399E-04 Eh
 * total energy  :   -31.5527174 Eh     change       -0.9408651E-04 Eh
 * total energy  :   -31.5527802 Eh     change       -0.6275284E-04 Eh
 * total energy  :   -31.5529695 Eh     change       -0.1893886E-03 Eh
 * total energy  :   -31.5556588 Eh     change       -0.1506403E-05 Eh
 * total energy  :   -31.5556601 Eh     change       -0.1323929E-05 Eh
 * total energy  :   -31.5556611 Eh     change       -0.1011631E-05 Eh
 * total energy  :   -31.5556618 Eh     change       -0.6487555E-06 Eh
 * total energy  :   -31.5556623 Eh     change       -0.4782149E-06 Eh
 * total energy  :   -31.5556626 Eh     change       -0.3667845E-06 Eh
 * total energy  :   -31.5556630 Eh     change       -0.3218093E-06 Eh
 * total energy  :   -31.5556633 Eh     change       -0.2911850E-06 Eh
 * total energy  :   -31.5556633 Eh     change       -0.1977984E-08 Eh
   *** GEOMETRY OPTIMIZATION CONVERGED AFTER 68 ITERATIONS ***

 final structure:
================
26
 xtb: 6.7.0 (08769fc)
P            1.58889623243968       -0.47527812906500       -2.98157770698739
C            3.41621917728635       -0.28320382407978       -3.29054449414339
H            3.52525889258592        0.60108000835524       -3.92588433619105
H            3.95615816383051       -0.09977312334753       -2.35922354434217
C            3.97549651745007       -1.50225670584344       -4.01494994155357
H            3.46595762994682       -1.64024274420449       -4.96638021676806
H            3.83141872106480       -2.40611779041756       -3.42594333842547
H            5.04056962058554       -1.38077092242412       -4.20780693428038
C            1.53360602153183       -1.38043200463277       -1.38468363658956
C            0.26064753738909       -1.55770267472400       -0.84538952218336
C            2.62141033970750       -1.93686335971306       -0.72423177097489
C            0.08136656762677       -2.23844353260428        0.34254317249156
C            2.44081220908933       -2.62433428043863        0.46417045713534
C            1.17560597530614       -2.77258339420611        1.00405577982711
H           -0.59336458082092       -1.15310449475195       -1.37255875024222
H            3.61939584116526       -1.84008994710547       -1.12366036951041
H           -0.91132764690397       -2.35969757520730        0.75187186378996
H            3.29693289263442       -3.04692683718864        0.97109189178812
H            1.04101838267170       -3.30824302880577        1.93236836700531
C            1.21003019983317        1.23176301997138       -2.31979467739305
H            1.28482456162067        1.91509833071620       -3.17082547602858
H            0.15975474031855        1.20884062402718       -2.01556856317422
C            2.06987942169506        1.72552268651989       -1.16449637686619
H            3.09899891221846        1.88334015629057       -1.47719562124411
H            2.06081633524303        1.01016942652737       -0.34390995988022
H            1.68179333448438        2.67392311635191       -0.79571229525992

          :  Hamiltonian                  GFN2-xTB          :
         :: gradient norm              0.000035743343 Eh/a0 ::
         :: HOMO-LUMO gap              3.648429027672 eV    ::
         :: SCC energy               -32.076674116078 Eh    ::
         :: -> dispersion             -0.024324066938 Eh    ::
         :: repulsion energy           0.521010863350 Eh    ::

    * Orbital Energies and Occupations

         #    Occupation            Energy/Eh            Energy/eV
      -------------------------------------------------------------
         1        2.0000           -0.6587590             -17.9257
       ...           ...                  ...                  ...
        18        2.0000           -0.4754587             -12.9379
        19        2.0000           -0.4741825             -12.9032
        20        2.0000           -0.4670887             -12.7101
        21        2.0000           -0.4610133             -12.5448
        22        2.0000           -0.4564767             -12.4214
        23        2.0000           -0.4434905             -12.0680
        24        2.0000           -0.4381506             -11.9227
        25        2.0000           -0.4238812             -11.5344
        26        2.0000           -0.4164226             -11.3314
        27        2.0000           -0.4070443             -11.0762
        28        2.0000           -0.4029611             -10.9651
        29        2.0000           -0.3994747             -10.8703
        30        2.0000           -0.3641604              -9.9093 (HOMO)
        31                         -0.2300831              -6.2609 (LUMO)
        32                         -0.2216254              -6.0307
        33                         -0.1543416              -4.1998
        34                         -0.1503040              -4.0900
        35                         -0.0931524              -2.5348
        36                          0.0034915               0.0950
        37                          0.0493705               1.3434
        38                          0.0996245               2.7109
        39                          0.1120245               3.0483
        40                          0.1211953               3.2979
        41                          0.1308006               3.5593
       ...                                ...                  ...
        64                          0.7779417              21.1689
      -------------------------------------------------------------
                  HL-Gap            0.1340773 Eh            3.6484 eV

     #   Z          covCN         q      C6AA      α(0)
     1  15 P        3.031    -0.115   165.452    23.107
     2   6 C        3.748    -0.045    21.452     6.606
     3   1 H        0.926     0.040     2.447     2.446
     4   1 H        0.925     0.046     2.368     2.407
     5   6 C        3.822    -0.097    22.341     6.726
     6   1 H        0.925     0.041     2.434     2.440
     7   1 H        0.925     0.039     2.464     2.455
     8   1 H        0.925     0.031     2.569     2.506
     9   6 C        2.915     0.012    27.743     8.637
    10   6 C        3.034    -0.030    28.716     8.790
    11   6 C        2.955    -0.033    28.817     8.805
    12   6 C        2.918    -0.030    28.748     8.792
    13   6 C        2.920    -0.032    28.788     8.799
    14   6 C        2.920    -0.031    28.773     8.796
    15   1 H        0.925     0.035     2.521     2.483
    16   1 H        0.926     0.036     2.507     2.476
    17   1 H        0.926     0.029     2.606     2.524
    18   1 H        0.926     0.027     2.629     2.536
    19   1 H        0.926     0.028     2.617     2.530
    20   6 C        3.747    -0.046    21.460     6.607
    21   1 H        0.926     0.040     2.449     2.447
    22   1 H        0.926     0.042     2.421     2.433
    23   6 C        3.780    -0.096    22.347     6.734
    24   1 H        0.925     0.037     2.487     2.466
    25   1 H        0.925     0.038     2.471     2.458
    26   1 H        0.925     0.033     2.540     2.492

Wiberg/Mayer (AO) data.
largest (>0.10) Wiberg bond orders for each atom

     #   Z sym  total        # sym  WBO       # sym  WBO       # sym  WBO
 ---------------------------------------------------------------------------
     1  15 P    3.375 --     2 C    1.030     9 C    1.017    20 C    1.012
     2   6 C    3.995 --     1 P    1.030     5 C    1.016     3 H    0.956
                             4 H    0.949
     3   1 H    0.998 --     2 C    0.956
     4   1 H    0.998 --     2 C    0.949
     5   6 C    3.997 --     2 C    1.016     6 H    0.985     8 H    0.985
                             7 H    0.983
     6   1 H    0.998 --     5 C    0.985
     7   1 H    0.998 --     5 C    0.983
     8   1 H    0.999 --     5 C    0.985
     9   6 C    3.982 --    11 C    1.404    10 C    1.390     1 P    1.017
                            14 C    0.106
    10   6 C    3.992 --    12 C    1.457     9 C    1.390    15 H    0.962
                            13 C    0.110
    11   6 C    3.993 --    13 C    1.439     9 C    1.404    16 H    0.961
                            12 C    0.107
    12   6 C    3.991 --    10 C    1.457    14 C    1.428    17 H    0.970
                            11 C    0.107
    13   6 C    3.993 --    14 C    1.442    11 C    1.439    18 H    0.970
                            10 C    0.110
    14   6 C    3.992 --    13 C    1.442    12 C    1.428    19 H    0.971
                             9 C    0.106
    15   1 H    0.999 --    10 C    0.962
    16   1 H    0.999 --    11 C    0.961
    17   1 H    0.999 --    12 C    0.970
    18   1 H    0.999 --    13 C    0.970
    19   1 H    0.998 --    14 C    0.971
    20   6 C    3.994 --     1 P    1.012    23 C    1.012    21 H    0.957
                            22 H    0.956
    21   1 H    0.998 --    20 C    0.957
    22   1 H    0.998 --    20 C    0.956
    23   6 C    3.997 --    20 C    1.012    24 H    0.985    26 H    0.983
                            25 H    0.983
    24   1 H    0.999 --    23 C    0.985
    25   1 H    0.999 --    23 C    0.983
    26   1 H    0.999 --    23 C    0.983
 ---------------------------------------------------------------------------

molecular dipole:
                 x           y           z       tot (Debye)
 q only:        0.213       0.217       0.093
   full:        0.409       0.331       0.389       1.664

 projected vibrational frequencies (cm⁻¹)
eigval :       -0.00    -0.00    -0.00     0.00     0.00     0.00
eigval :       24.77    64.33    84.70   113.39   161.39   170.37
eigval :      201.68   222.57   248.07   262.19   315.08   361.10
eigval :      366.20   393.04   472.99   585.87   648.62   659.29
eigval :      679.05   690.60   736.50   760.67   769.35   872.92
eigval :      896.13   925.86   931.66   967.53   982.06   995.03
eigval :     1013.48  1017.24  1063.76  1077.73  1084.84  1115.14
eigval :     1123.27  1181.71  1203.74  1222.59  1230.91  1250.07
eigval :     1268.57  1280.17  1317.26  1407.75  1412.84  1421.49
eigval :     1448.79  1451.30  1461.95  1496.50  1499.45  1504.92
eigval :     1506.66  1578.19  1589.28  2936.11  2941.15  2951.49
eigval :     2955.09  3011.80  3012.33  3023.44  3025.15  3034.05
eigval :     3041.10  3054.10  3067.38  3074.38  3086.73  3093.34

   temp. (K)  partition function   enthalpy   heat capacity  entropy
                                   cal/mol     cal/K/mol   cal/K/mol   J/K/mol
 298.15  VIB  0.145E+05             6121.045     39.479     37.346
         ROT  0.115E+07              888.752      2.981     30.720
         INT  0.168E+11             7009.798     42.460     68.066
         TR   0.207E+28             1481.254      4.968     41.214
         TOT                        8491.0515    47.4278   109.2795   457.2255

       T/K    H(0)-H(T)+PV         H(T)/Eh          T*S/Eh         G(T)/Eh
   ------------------------------------------------------------------------
    298.15    0.135314E-01    0.232464E+00    0.519222E-01    0.180542E+00
   ------------------------------------------------------------------------

         :::::::::::::::::::::::::::::::::::::::::::::::::::::
         ::                  THERMODYNAMIC                  ::
         :::::::::::::::::::::::::::::::::::::::::::::::::::::
         :: total free energy         -31.375121648218 Eh   ::
         ::.................................................::
         :: total energy              -31.555663252728 Eh   ::
         :: zero point energy           0.218932474823 Eh   ::
         :: G(RRHO) w/o ZPVE           -0.038390870313 Eh   ::
         :: G(RRHO) contrib.            0.180541604510 Eh   ::
         :::::::::::::::::::::::::::::::::::::::::::::::::::::

           -------------------------------------------------
          | TOTAL ENERGY              -31.555663252728 Eh   |
          | TOTAL ENTHALPY            -31.323199426003 Eh   |
          | TOTAL FREE ENERGY         -31.375121648218 Eh   |
          | GRADIENT NORM               0.000035743184 Eh/α |
          | HOMO-LUMO GAP               3.648429015363 eV   |
           -------------------------------------------------

 * finished run on 2025/07/14 at 11:31:54.566
