   * xtb version 6.7.0 (08769fc) compiled by 'albert@albert-system' on 2024-03-04

   ID    Z sym.   atoms
    1   15 P      1
    2    6 C      2, 5, 9-14, 20, 23
    3    1 H      3, 4, 6-8, 15-19, 21, 22, 24-26

          program call               : /home/minenky/programs/xtb/xtb-dist/bin/xtb m1_00_PEt2Ph-PBE0-D3-TZ-uniMM_18.xyz --charge 0 --T --ohess extreme --cycles 5000 --acc 0.01 --iterations 5000
          :  Hamiltonian                  GFN2-xTB          :
 * total energy  :   -31.5498487 Eh     change       -0.3552714E-13 Eh
 * total energy  :   -31.5518020 Eh     change       -0.1953321E-02 Eh
 * total energy  :   -31.5522457 Eh     change       -0.4436797E-03 Eh
 * total energy  :   -31.5524245 Eh     change       -0.1787661E-03 Eh
 * total energy  :   -31.5525982 Eh     change       -0.1737785E-03 Eh
 * total energy  :   -31.5527997 Eh     change       -0.2015009E-03 Eh
 * total energy  :   -31.5530332 Eh     change       -0.2334852E-03 Eh
 * total energy  :   -31.5533462 Eh     change       -0.3129843E-03 Eh
 * total energy  :   -31.5537127 Eh     change       -0.3664838E-03 Eh
 * total energy  :   -31.5540162 Eh     change       -0.3035518E-03 Eh
 * total energy  :   -31.5559271 Eh     change       -0.2969177E-06 Eh
 * total energy  :   -31.5559274 Eh     change       -0.2175040E-06 Eh
 * total energy  :   -31.5559275 Eh     change       -0.1699265E-06 Eh
 * total energy  :   -31.5559277 Eh     change       -0.1424244E-06 Eh
 * total energy  :   -31.5559278 Eh     change       -0.1355807E-06 Eh
 * total energy  :   -31.5559280 Eh     change       -0.1460077E-06 Eh
 * total energy  :   -31.5559281 Eh     change       -0.1503879E-06 Eh
 * total energy  :   -31.5559283 Eh     change       -0.1420938E-06 Eh
 * total energy  :   -31.5559283 Eh     change       -0.9692052E-09 Eh
   *** GEOMETRY OPTIMIZATION CONVERGED AFTER 68 ITERATIONS ***

 final structure:
================
26
 xtb: 6.7.0 (08769fc)
P            1.37660510290922       -0.51109848084409       -2.70544379554729
C            2.84846694131421       -1.18764063766956       -1.78219624816287
H            3.46600395417092       -0.37780713536236       -1.38689702485323
H            2.44655088314681       -1.75870181779138       -0.94001030892893
C            3.67268082814731       -2.11653944566294       -2.66462259129883
H            4.14533042644532       -1.56845558335555       -3.47669337907600
H            3.03960596995102       -2.88873359631801       -3.09794203831489
H            4.45468326139637       -2.60037677368459       -2.08122640115986
C            0.79641664894036        0.78650415601021       -1.54483704949703
C           -0.14532137618225        1.68725488639588       -2.03937832765514
C            1.15821701770965        0.86990871574517       -0.20557371235682
C           -0.67446687187226        2.67525212749585       -1.23259212754590
C            0.62435347538607        1.85815815621034        0.60397230254480
C           -0.28524428645064        2.76746159370203        0.09402066482557
H           -0.46393943284384        1.60609705261884       -3.06986935276516
H            1.85839065121224        0.16656920098289        0.21860343336999
H           -1.39597473998161        3.37180803298582       -1.63508576387927
H            0.92186378529831        1.91616915412050        1.64146254790548
H           -0.69648994462726        3.53871351141733        0.72866450917242
C            2.22538276533718        0.60111292406612       -3.94581817677757
H            2.69353860939458       -0.05515550113167       -4.68460015698864
H            1.42369628140369        1.13623269413106       -4.46218823364377
C            3.23745254753058        1.59569137855521       -3.39474895852120
H            4.11463552428444        1.09079682469676       -2.99764325354417
H            2.79458105693467        2.19732190106727       -2.60268062740676
H            3.56716492104499        2.26440366161857       -4.18869592989468

          :  Hamiltonian                  GFN2-xTB          :
         :: gradient norm              0.000024893782 Eh/a0 ::
         :: HOMO-LUMO gap              3.637696526174 eV    ::
         :: SCC energy               -32.077066445907 Eh    ::
         :: -> dispersion             -0.024357185741 Eh    ::
         :: repulsion energy           0.521138193170 Eh    ::

    * Orbital Energies and Occupations

         #    Occupation            Energy/Eh            Energy/eV
      -------------------------------------------------------------
         1        2.0000           -0.6587484             -17.9255
       ...           ...                  ...                  ...
        18        2.0000           -0.4770589             -12.9814
        19        2.0000           -0.4740136             -12.8986
        20        2.0000           -0.4690038             -12.7622
        21        2.0000           -0.4616285             -12.5615
        22        2.0000           -0.4527138             -12.3190
        23        2.0000           -0.4451150             -12.1122
        24        2.0000           -0.4393502             -11.9553
        25        2.0000           -0.4246713             -11.5559
        26        2.0000           -0.4144008             -11.2764
        27        2.0000           -0.4077979             -11.0967
        28        2.0000           -0.4028150             -10.9612
        29        2.0000           -0.4006741             -10.9029
        30        2.0000           -0.3635563              -9.8929 (HOMO)
        31                         -0.2298734              -6.2552 (LUMO)
        32                         -0.2215364              -6.0283
        33                         -0.1544241              -4.2021
        34                         -0.1499086              -4.0792
        35                         -0.0933248              -2.5395
        36                          0.0104508               0.2844
        37                          0.0442004               1.2028
        38                          0.1062437               2.8910
        39                          0.1121252               3.0511
        40                          0.1164618               3.1691
        41                          0.1320315               3.5928
       ...                                ...                  ...
        64                          0.7999428              21.7676
      -------------------------------------------------------------
                  HL-Gap            0.1336829 Eh            3.6377 eV

     #   Z          covCN         q      C6AA      α(0)
     1  15 P        3.020    -0.113   165.371    23.102
     2   6 C        3.748    -0.045    21.450     6.606
     3   1 H        0.925     0.047     2.362     2.403
     4   1 H        0.926     0.041     2.441     2.443
     5   6 C        3.819    -0.097    22.332     6.725
     6   1 H        0.925     0.037     2.488     2.467
     7   1 H        0.925     0.041     2.431     2.438
     8   1 H        0.925     0.032     2.556     2.500
     9   6 C        2.915     0.010    27.791     8.645
    10   6 C        3.021    -0.030    28.726     8.792
    11   6 C        2.961    -0.034    28.832     8.807
    12   6 C        2.918    -0.030    28.754     8.793
    13   6 C        2.919    -0.031    28.768     8.795
    14   6 C        2.920    -0.031    28.776     8.797
    15   1 H        0.925     0.034     2.532     2.488
    16   1 H        0.926     0.033     2.549     2.497
    17   1 H        0.926     0.029     2.604     2.523
    18   1 H        0.926     0.028     2.617     2.530
    19   1 H        0.926     0.028     2.611     2.527
    20   6 C        3.748    -0.044    21.428     6.602
    21   1 H        0.926     0.041     2.439     2.442
    22   1 H        0.926     0.042     2.423     2.434
    23   6 C        3.780    -0.094    22.320     6.730
    24   1 H        0.925     0.038     2.479     2.462
    25   1 H        0.925     0.037     2.483     2.464
    26   1 H        0.925     0.032     2.560     2.502

Wiberg/Mayer (AO) data.
largest (>0.10) Wiberg bond orders for each atom

     #   Z sym  total        # sym  WBO       # sym  WBO       # sym  WBO
 ---------------------------------------------------------------------------
     1  15 P    3.378 --     2 C    1.028     9 C    1.019    20 C    1.014
     2   6 C    3.995 --     1 P    1.028     5 C    1.015     4 H    0.956
                             3 H    0.951
     3   1 H    0.998 --     2 C    0.951
     4   1 H    0.998 --     2 C    0.956
     5   6 C    3.996 --     2 C    1.015     8 H    0.985     7 H    0.984
                             6 H    0.984
     6   1 H    0.999 --     5 C    0.984
     7   1 H    0.998 --     5 C    0.984
     8   1 H    0.999 --     5 C    0.985
     9   6 C    3.982 --    11 C    1.402    10 C    1.390     1 P    1.019
                            14 C    0.106
    10   6 C    3.992 --    12 C    1.457     9 C    1.390    15 H    0.962
                            13 C    0.110
    11   6 C    3.993 --    13 C    1.441     9 C    1.402    16 H    0.963
                            12 C    0.107
    12   6 C    3.992 --    10 C    1.457    14 C    1.428    17 H    0.970
                            11 C    0.107
    13   6 C    3.993 --    14 C    1.441    11 C    1.441    18 H    0.970
                            10 C    0.110
    14   6 C    3.991 --    13 C    1.441    12 C    1.428    19 H    0.971
                             9 C    0.106
    15   1 H    0.999 --    10 C    0.962
    16   1 H    0.999 --    11 C    0.963
    17   1 H    0.999 --    12 C    0.970
    18   1 H    0.999 --    13 C    0.970
    19   1 H    0.998 --    14 C    0.971
    20   6 C    3.994 --     1 P    1.014    23 C    1.012    21 H    0.956
                            22 H    0.954
    21   1 H    0.998 --    20 C    0.956
    22   1 H    0.998 --    20 C    0.954
    23   6 C    3.997 --    20 C    1.012    24 H    0.984    26 H    0.983
                            25 H    0.983
    24   1 H    0.999 --    23 C    0.984
    25   1 H    0.999 --    23 C    0.983
    26   1 H    0.999 --    23 C    0.983
 ---------------------------------------------------------------------------

molecular dipole:
                 x           y           z       tot (Debye)
 q only:        0.336       0.085      -0.038
   full:        0.563       0.334       0.106       1.686

 projected vibrational frequencies (cm⁻¹)
eigval :       -0.00    -0.00     0.00     0.00     0.00     0.00
eigval :       27.50    69.90    81.23   127.25   129.34   199.56
eigval :      204.14   227.89   261.47   277.09   283.95   356.75
eigval :      363.04   406.67   472.86   585.99   638.38   657.09
eigval :      683.17   704.77   729.31   746.92   791.33   871.15
eigval :      894.48   925.10   931.16   968.64   974.31   998.55
eigval :     1012.33  1021.86  1065.60  1072.87  1085.82  1115.65
eigval :     1123.31  1181.88  1203.29  1225.68  1227.92  1251.02
eigval :     1266.83  1282.26  1316.96  1408.48  1410.64  1421.68
eigval :     1450.95  1454.91  1462.06  1497.35  1501.03  1504.83
eigval :     1508.54  1577.48  1589.11  2938.97  2942.36  2949.50
eigval :     2960.71  3011.43  3013.24  3023.87  3024.74  3034.22
eigval :     3039.04  3058.53  3068.38  3074.70  3086.98  3094.10

   temp. (K)  partition function   enthalpy   heat capacity  entropy
                                   cal/mol     cal/K/mol   cal/K/mol   J/K/mol
 298.15  VIB  0.120E+05             6093.674     39.514     37.078
         ROT  0.113E+07              888.752      2.981     30.681
         INT  0.135E+11             6982.426     42.495     67.759
         TR   0.207E+28             1481.254      4.968     41.214
         TOT                        8463.6802    47.4633   108.9728   455.9421

       T/K    H(0)-H(T)+PV         H(T)/Eh          T*S/Eh         G(T)/Eh
   ------------------------------------------------------------------------
    298.15    0.134877E-01    0.232534E+00    0.517765E-01    0.180757E+00
   ------------------------------------------------------------------------

         :::::::::::::::::::::::::::::::::::::::::::::::::::::
         ::                  THERMODYNAMIC                  ::
         :::::::::::::::::::::::::::::::::::::::::::::::::::::
         :: total free energy         -31.375171019061 Eh   ::
         ::.................................................::
         :: total energy              -31.555928252737 Eh   ::
         :: zero point energy           0.219045987020 Eh   ::
         :: G(RRHO) w/o ZPVE           -0.038288753344 Eh   ::
         :: G(RRHO) contrib.            0.180757233676 Eh   ::
         :::::::::::::::::::::::::::::::::::::::::::::::::::::

           -------------------------------------------------
          | TOTAL ENERGY              -31.555928252737 Eh   |
          | TOTAL ENTHALPY            -31.323394532849 Eh   |
          | TOTAL FREE ENERGY         -31.375171019061 Eh   |
          | GRADIENT NORM               0.000024893946 Eh/α |
          | HOMO-LUMO GAP               3.637696590881 eV   |
           -------------------------------------------------

 * finished run on 2025/07/14 at 11:27:38.313
