   * xtb version 6.7.0 (08769fc) compiled by 'albert@albert-system' on 2024-03-04

   ID    Z sym.   atoms
    1   15 P      1
    2    6 C      2, 5, 9-14, 20, 23
    3    1 H      3, 4, 6-8, 15-19, 21, 22, 24-26

          program call               : /home/minenky/programs/xtb/xtb-dist/bin/xtb m1_00_PEt2Ph-PBE0-D3-TZ-uniMM_27.xyz --charge 0 --T --ohess extreme --cycles 5000 --acc 0.01 --iterations 5000
          :  Hamiltonian                  GFN2-xTB          :
 * total energy  :   -31.5439701 Eh     change       -0.2486900E-12 Eh
 * total energy  :   -31.5479207 Eh     change       -0.3950542E-02 Eh
 * total energy  :   -31.5488271 Eh     change       -0.9064207E-03 Eh
 * total energy  :   -31.5493741 Eh     change       -0.5469735E-03 Eh
 * total energy  :   -31.5497606 Eh     change       -0.3865697E-03 Eh
 * total energy  :   -31.5502373 Eh     change       -0.4766856E-03 Eh
 * total energy  :   -31.5508815 Eh     change       -0.6441327E-03 Eh
 * total energy  :   -31.5516058 Eh     change       -0.7243873E-03 Eh
 * total energy  :   -31.5522557 Eh     change       -0.6498057E-03 Eh
 * total energy  :   -31.5528029 Eh     change       -0.5472213E-03 Eh
 * total energy  :   -31.5560254 Eh     change       -0.1264475E-06 Eh
 * total energy  :   -31.5560256 Eh     change       -0.1327247E-06 Eh
 * total energy  :   -31.5560257 Eh     change       -0.1355142E-06 Eh
 * total energy  :   -31.5560259 Eh     change       -0.1473197E-06 Eh
 * total energy  :   -31.5560260 Eh     change       -0.1443678E-06 Eh
 * total energy  :   -31.5560262 Eh     change       -0.1456960E-06 Eh
 * total energy  :   -31.5560263 Eh     change       -0.1312922E-06 Eh
 * total energy  :   -31.5560264 Eh     change       -0.1266908E-06 Eh
 * total energy  :   -31.5560264 Eh     change       -0.8050058E-09 Eh
   *** GEOMETRY OPTIMIZATION CONVERGED AFTER 68 ITERATIONS ***

 final structure:
================
26
 xtb: 6.7.0 (08769fc)
P            1.50392467944444       -0.25191428018552       -2.74928476382541
C           -0.25185506916317       -0.55990965727884       -3.30922333223690
H           -0.34207187227697       -0.42703587726770       -4.39036584827662
H           -0.49085376103056       -1.59871998388369       -3.06517381409392
C           -1.21566182982182        0.37467032662022       -2.58810554232264
H           -0.99227400422599        1.41419014705760       -2.82034184920321
H           -1.13645902554842        0.24365874391111       -1.51094063672166
H           -2.24284170942372        0.17074729523201       -2.88633174851344
C            2.36412022234098       -1.66169105201376       -3.56185040229084
C            3.46287730925651       -2.18944788508633       -2.89187705176008
C            2.00191994821279       -2.20203263615156       -4.79016788420666
C            4.19122395116886       -3.23102673887862       -3.43740676842645
C            2.72638976767198       -3.24746833888781       -5.33333666903500
C            3.82220632584095       -3.76302508777887       -4.66103899503735
H            3.74142433119241       -1.77119333270899       -1.93419469403818
H            1.15222677274626       -1.81137711721226       -5.33099348110677
H            5.04491503645570       -3.62961880762810       -2.90834511274934
H            2.43572961145142       -3.66177390000319       -6.28849556676666
H            4.38570184128530       -4.57835205601670       -5.09089565369549
C            1.95976655241112        1.06164802106674       -3.99752540429301
H            1.72649675111300        0.70482017658073       -5.00522197943748
H            1.34011072709429        1.93780664906438       -3.78789969894147
C            3.43267411242465        1.42937829598876       -3.89073717249430
H            4.05735661717730        0.56287583390360       -4.10250497434194
H            3.66547733313164        1.77961019828273       -2.88703508249836
H            3.68443938107707        2.21749706327447       -4.59860887368920

          :  Hamiltonian                  GFN2-xTB          :
         :: gradient norm              0.000023067734 Eh/a0 ::
         :: HOMO-LUMO gap              3.665193509653 eV    ::
         :: SCC energy               -32.076559946889 Eh    ::
         :: -> dispersion             -0.023582695984 Eh    ::
         :: repulsion energy           0.520533533013 Eh    ::

    * Orbital Energies and Occupations

         #    Occupation            Energy/Eh            Energy/eV
      -------------------------------------------------------------
         1        2.0000           -0.6580370             -17.9061
       ...           ...                  ...                  ...
        18        2.0000           -0.4773119             -12.9883
        19        2.0000           -0.4745278             -12.9126
        20        2.0000           -0.4632666             -12.6061
        21        2.0000           -0.4617905             -12.5660
        22        2.0000           -0.4524918             -12.3129
        23        2.0000           -0.4445975             -12.0981
        24        2.0000           -0.4381434             -11.9225
        25        2.0000           -0.4230571             -11.5120
        26        2.0000           -0.4182764             -11.3819
        27        2.0000           -0.4045514             -11.0084
        28        2.0000           -0.4040742             -10.9954
        29        2.0000           -0.3968638             -10.7992
        30        2.0000           -0.3672945              -9.9946 (HOMO)
        31                         -0.2326011              -6.3294 (LUMO)
        32                         -0.2227730              -6.0620
        33                         -0.1561606              -4.2493
        34                         -0.1513165              -4.1175
        35                         -0.0928264              -2.5259
        36                         -0.0019725              -0.0537
        37                          0.0592037               1.6110
        38                          0.0914449               2.4883
        39                          0.1092797               2.9737
        40                          0.1327783               3.6131
        41                          0.1364989               3.7143
       ...                                ...                  ...
        64                          0.7811270              21.2555
      -------------------------------------------------------------
                  HL-Gap            0.1346934 Eh            3.6652 eV

     #   Z          covCN         q      C6AA      α(0)
     1  15 P        3.057    -0.114   165.386    23.102
     2   6 C        3.748    -0.048    21.493     6.613
     3   1 H        0.925     0.041     2.432     2.439
     4   1 H        0.925     0.040     2.450     2.448
     5   6 C        3.822    -0.098    22.350     6.728
     6   1 H        0.925     0.036     2.497     2.471
     7   1 H        0.925     0.042     2.421     2.433
     8   1 H        0.925     0.033     2.548     2.496
     9   6 C        2.916     0.008    27.846     8.653
    10   6 C        3.018    -0.030    28.730     8.792
    11   6 C        2.960    -0.030    28.737     8.793
    12   6 C        2.918    -0.030    28.748     8.792
    13   6 C        2.919    -0.031    28.769     8.796
    14   6 C        2.920    -0.029    28.735     8.790
    15   1 H        0.925     0.039     2.457     2.451
    16   1 H        0.926     0.032     2.563     2.503
    17   1 H        0.926     0.030     2.586     2.515
    18   1 H        0.926     0.028     2.612     2.527
    19   1 H        0.926     0.029     2.598     2.521
    20   6 C        3.748    -0.045    21.447     6.605
    21   1 H        0.925     0.042     2.419     2.432
    22   1 H        0.925     0.040     2.450     2.448
    23   6 C        3.819    -0.097    22.333     6.726
    24   1 H        0.925     0.036     2.503     2.474
    25   1 H        0.925     0.042     2.425     2.435
    26   1 H        0.925     0.032     2.551     2.498

Wiberg/Mayer (AO) data.
largest (>0.10) Wiberg bond orders for each atom

     #   Z sym  total        # sym  WBO       # sym  WBO       # sym  WBO
 ---------------------------------------------------------------------------
     1  15 P    3.344 --     2 C    1.027    20 C    1.020     9 C    1.008
     2   6 C    3.995 --     1 P    1.027     5 C    1.016     4 H    0.960
                             3 H    0.951
     3   1 H    0.998 --     2 C    0.951
     4   1 H    0.998 --     2 C    0.960
     5   6 C    3.996 --     2 C    1.016     7 H    0.985     8 H    0.985
                             6 H    0.985
     6   1 H    0.999 --     5 C    0.985
     7   1 H    0.998 --     5 C    0.985
     8   1 H    0.998 --     5 C    0.985
     9   6 C    3.983 --    10 C    1.406    11 C    1.400     1 P    1.008
                            14 C    0.108
    10   6 C    3.991 --    12 C    1.444     9 C    1.406    15 H    0.964
                            13 C    0.109
    11   6 C    3.993 --    13 C    1.448     9 C    1.400    16 H    0.963
                            12 C    0.110
    12   6 C    3.992 --    10 C    1.444    14 C    1.439    17 H    0.970
                            11 C    0.110
    13   6 C    3.993 --    11 C    1.448    14 C    1.434    18 H    0.970
                            10 C    0.109
    14   6 C    3.990 --    12 C    1.439    13 C    1.434    19 H    0.971
                             9 C    0.108
    15   1 H    0.998 --    10 C    0.964
    16   1 H    0.999 --    11 C    0.963
    17   1 H    0.999 --    12 C    0.970
    18   1 H    0.999 --    13 C    0.970
    19   1 H    0.998 --    14 C    0.971
    20   6 C    3.996 --     1 P    1.020    23 C    1.017    22 H    0.957
                            21 H    0.952
    21   1 H    0.998 --    20 C    0.952
    22   1 H    0.998 --    20 C    0.957
    23   6 C    3.997 --    20 C    1.017    25 H    0.985    26 H    0.984
                            24 H    0.984
    24   1 H    0.999 --    23 C    0.984
    25   1 H    0.998 --    23 C    0.985
    26   1 H    0.999 --    23 C    0.984
 ---------------------------------------------------------------------------

molecular dipole:
                 x           y           z       tot (Debye)
 q only:       -0.080       0.085      -0.220
   full:       -0.142       0.002      -0.619       1.614

 projected vibrational frequencies (cm⁻¹)
eigval :       -0.00     0.00     0.00     0.00     0.00     0.00
eigval :       10.04    52.49    71.73    99.43   131.64   159.32
eigval :      199.27   214.95   232.36   266.34   291.24   333.74
eigval :      361.59   429.21   452.13   586.02   656.90   661.91
eigval :      687.28   698.94   735.90   762.02   779.07   873.57
eigval :      898.03   926.23   932.62   969.15   977.10   993.95
eigval :     1012.40  1018.69  1071.19  1077.16  1083.42  1117.38
eigval :     1120.85  1181.62  1198.17  1224.40  1229.48  1251.10
eigval :     1252.39  1280.00  1315.42  1409.68  1410.85  1423.34
eigval :     1438.64  1448.14  1457.43  1497.26  1498.86  1500.96
eigval :     1502.50  1579.65  1589.44  2925.99  2936.45  2948.09
eigval :     2951.09  3013.83  3014.37  3019.93  3024.72  3029.99
eigval :     3033.59  3062.17  3066.07  3074.21  3079.91  3088.00

   temp. (K)  partition function   enthalpy   heat capacity  entropy
                                   cal/mol     cal/K/mol   cal/K/mol   J/K/mol
 298.15  VIB  0.697E+05             6275.275     39.245     39.574
         ROT  0.122E+07              888.752      2.981     30.837
         INT  0.853E+11             7164.028     42.226     70.411
         TR   0.207E+28             1481.254      4.968     41.214
         TOT                        8645.2815    47.1942   111.6245   467.0368

       T/K    H(0)-H(T)+PV         H(T)/Eh          T*S/Eh         G(T)/Eh
   ------------------------------------------------------------------------
    298.15    0.137771E-01    0.232260E+00    0.530364E-01    0.179224E+00
   ------------------------------------------------------------------------

         :::::::::::::::::::::::::::::::::::::::::::::::::::::
         ::                  THERMODYNAMIC                  ::
         :::::::::::::::::::::::::::::::::::::::::::::::::::::
         :: total free energy         -31.376802614963 Eh   ::
         ::.................................................::
         :: total energy              -31.556026413875 Eh   ::
         :: zero point energy           0.218483053795 Eh   ::
         :: G(RRHO) w/o ZPVE           -0.039259254882 Eh   ::
         :: G(RRHO) contrib.            0.179223798913 Eh   ::
         :::::::::::::::::::::::::::::::::::::::::::::::::::::

           -------------------------------------------------
          | TOTAL ENERGY              -31.556026413875 Eh   |
          | TOTAL ENTHALPY            -31.323766227124 Eh   |
          | TOTAL FREE ENERGY         -31.376802614963 Eh   |
          | GRADIENT NORM               0.000023067861 Eh/α |
          | HOMO-LUMO GAP               3.665193522679 eV   |
           -------------------------------------------------

 * finished run on 2025/07/14 at 11:29:06.230
