   * xtb version 6.7.0 (08769fc) compiled by 'albert@albert-system' on 2024-03-04

   ID    Z sym.   atoms
    1   15 P      1
    2    6 C      2, 5, 9-14, 20, 23
    3    1 H      3, 4, 6-8, 15-19, 21, 22, 24-26

          program call               : /home/minenky/programs/xtb/xtb-dist/bin/xtb m1_00_PEt2Ph-PBE0-D3-TZ-uniMM_32.xyz --charge 0 --T --ohess extreme --cycles 5000 --acc 0.01 --iterations 5000
          :  Hamiltonian                  GFN2-xTB          :
 * total energy  :   -31.5414504 Eh     change        0.7105427E-14 Eh
 * total energy  :   -31.5471865 Eh     change       -0.5736182E-02 Eh
 * total energy  :   -31.5486804 Eh     change       -0.1493878E-02 Eh
 * total energy  :   -31.5494693 Eh     change       -0.7888940E-03 Eh
 * total energy  :   -31.5499115 Eh     change       -0.4421573E-03 Eh
 * total energy  :   -31.5502937 Eh     change       -0.3822577E-03 Eh
 * total energy  :   -31.5506358 Eh     change       -0.3420339E-03 Eh
 * total energy  :   -31.5509520 Eh     change       -0.3162392E-03 Eh
 * total energy  :   -31.5513317 Eh     change       -0.3797338E-03 Eh
 * total energy  :   -31.5519016 Eh     change       -0.5698159E-03 Eh
 * total energy  :   -31.5560366 Eh     change        0.1789916E-06 Eh
 * total energy  :   -31.5560372 Eh     change       -0.6364366E-06 Eh
 * total energy  :   -31.5560376 Eh     change       -0.3617946E-06 Eh
 * total energy  :   -31.5560379 Eh     change       -0.3353135E-06 Eh
 * total energy  :   -31.5560384 Eh     change       -0.4272539E-06 Eh
 * total energy  :   -31.5560389 Eh     change       -0.5113953E-06 Eh
 * total energy  :   -31.5560393 Eh     change       -0.4363239E-06 Eh
 * total energy  :   -31.5560395 Eh     change       -0.2386276E-06 Eh
 * total energy  :   -31.5560395 Eh     change       -0.6320263E-08 Eh
   *** GEOMETRY OPTIMIZATION CONVERGED AFTER 44 ITERATIONS ***

 final structure:
================
26
 xtb: 6.7.0 (08769fc)
P            1.86125761437504       -0.15538764879757       -3.13457373221079
C            1.29904071504244       -0.15259359452743       -1.35330942316325
H            0.65230117520420       -1.02346598951196       -1.21577528404297
H            2.16438929436244       -0.25704147725666       -0.69233275904553
C            0.53112641869909        1.12052944928493       -1.02757005625366
H           -0.32735183962078        1.22645403452549       -1.68794215142857
H            1.16954092085829        1.99328523957162       -1.15695769534260
H            0.17529414954950        1.10246198284383        0.00135666989848
C            3.15848393060518        1.14333328466783       -2.99184778554501
C            4.27818541216514        1.04721229765931       -2.17373334109570
C            2.97498699392664        2.29552625431388       -3.74869242424501
C            5.19219655463817        2.08338589765215       -2.11696538978350
C            3.88661828969702        3.33416690928492       -3.68916448367430
C            4.99902453629373        3.22853049722780       -2.87212160088569
H            4.44491354668064        0.16319065522322       -1.57524510331576
H            2.10469611079278        2.36875868840266       -4.38642729645613
H            6.06034544141063        1.99838459445383       -1.47857151403601
H            3.73093536331456        4.22518456054701       -4.28025477580820
H            5.71536276375843        4.03568629497359       -2.82284269902453
C            2.93301973494896       -1.68529395469097       -3.08383074957203
H            3.69663442276640       -1.56634662190712       -3.85761614434314
H            3.43312382878375       -1.77480129379673       -2.11617257399999
C            2.10574687212043       -2.93423349263868       -3.36216261433633
H            1.61104482739870       -2.85390850198720       -4.32787065175158
H            1.34108675662486       -3.06951541521790       -2.59969675834905
H            2.73973416560264       -3.81946365030014       -3.37148566218943

          :  Hamiltonian                  GFN2-xTB          :
         :: gradient norm              0.000043976583 Eh/a0 ::
         :: HOMO-LUMO gap              3.654058095059 eV    ::
         :: SCC energy               -32.076601018413 Eh    ::
         :: -> dispersion             -0.023578267579 Eh    ::
         :: repulsion energy           0.520561475524 Eh    ::

    * Orbital Energies and Occupations

         #    Occupation            Energy/Eh            Energy/eV
      -------------------------------------------------------------
         1        2.0000           -0.6579366             -17.9034
       ...           ...                  ...                  ...
        18        2.0000           -0.4774189             -12.9912
        19        2.0000           -0.4746286             -12.9153
        20        2.0000           -0.4630008             -12.5989
        21        2.0000           -0.4619173             -12.5694
        22        2.0000           -0.4528435             -12.3225
        23        2.0000           -0.4444731             -12.0947
        24        2.0000           -0.4378344             -11.9141
        25        2.0000           -0.4232004             -11.5159
        26        2.0000           -0.4184241             -11.3859
        27        2.0000           -0.4044567             -11.0058
        28        2.0000           -0.4042037             -10.9989
        29        2.0000           -0.3968245             -10.7981
        30        2.0000           -0.3673086              -9.9950 (HOMO)
        31                         -0.2330244              -6.3409 (LUMO)
        32                         -0.2228951              -6.0653
        33                         -0.1562794              -4.2526
        34                         -0.1507709              -4.1027
        35                         -0.0928358              -2.5262
        36                         -0.0009918              -0.0270
        37                          0.0581849               1.5833
        38                          0.0902319               2.4553
        39                          0.1061145               2.8875
        40                          0.1341829               3.6513
        41                          0.1363378               3.7099
       ...                                ...                  ...
        64                          0.7812853              21.2599
      -------------------------------------------------------------
                  HL-Gap            0.1342842 Eh            3.6541 eV

     #   Z          covCN         q      C6AA      α(0)
     1  15 P        3.055    -0.114   165.412    23.104
     2   6 C        3.748    -0.045    21.449     6.606
     3   1 H        0.925     0.039     2.456     2.451
     4   1 H        0.925     0.042     2.416     2.431
     5   6 C        3.820    -0.097    22.327     6.724
     6   1 H        0.925     0.042     2.426     2.436
     7   1 H        0.925     0.036     2.508     2.477
     8   1 H        0.925     0.032     2.552     2.498
     9   6 C        2.916     0.008    27.848     8.654
    10   6 C        2.960    -0.029    28.720     8.790
    11   6 C        3.017    -0.030    28.731     8.793
    12   6 C        2.919    -0.031    28.770     8.796
    13   6 C        2.918    -0.030    28.746     8.792
    14   6 C        2.920    -0.029    28.732     8.790
    15   1 H        0.926     0.031     2.567     2.506
    16   1 H        0.925     0.040     2.454     2.450
    17   1 H        0.926     0.028     2.610     2.527
    18   1 H        0.926     0.030     2.583     2.513
    19   1 H        0.926     0.029     2.597     2.520
    20   6 C        3.748    -0.047    21.489     6.612
    21   1 H        0.925     0.039     2.457     2.451
    22   1 H        0.925     0.042     2.429     2.437
    23   6 C        3.820    -0.098    22.350     6.728
    24   1 H        0.925     0.042     2.421     2.433
    25   1 H        0.925     0.036     2.497     2.471
    26   1 H        0.925     0.033     2.547     2.496

Wiberg/Mayer (AO) data.
largest (>0.10) Wiberg bond orders for each atom

     #   Z sym  total        # sym  WBO       # sym  WBO       # sym  WBO
 ---------------------------------------------------------------------------
     1  15 P    3.343 --    20 C    1.026     2 C    1.022     9 C    1.007
     2   6 C    3.996 --     1 P    1.022     5 C    1.017     3 H    0.958
                             4 H    0.951
     3   1 H    0.998 --     2 C    0.958
     4   1 H    0.998 --     2 C    0.951
     5   6 C    3.997 --     2 C    1.017     6 H    0.985     8 H    0.984
                             7 H    0.984
     6   1 H    0.998 --     5 C    0.985
     7   1 H    0.999 --     5 C    0.984
     8   1 H    0.999 --     5 C    0.984
     9   6 C    3.983 --    11 C    1.408    10 C    1.400     1 P    1.007
                            14 C    0.108
    10   6 C    3.993 --    12 C    1.449     9 C    1.400    15 H    0.962
                            13 C    0.110
    11   6 C    3.991 --    13 C    1.443     9 C    1.408    16 H    0.964
                            12 C    0.108
    12   6 C    3.993 --    10 C    1.449    14 C    1.433    17 H    0.970
                            11 C    0.108
    13   6 C    3.992 --    11 C    1.443    14 C    1.440    18 H    0.970
                            10 C    0.110
    14   6 C    3.990 --    13 C    1.440    12 C    1.433    19 H    0.971
                             9 C    0.108
    15   1 H    0.999 --    10 C    0.962
    16   1 H    0.998 --    11 C    0.964
    17   1 H    0.999 --    12 C    0.970
    18   1 H    0.999 --    13 C    0.970
    19   1 H    0.998 --    14 C    0.971
    20   6 C    3.994 --     1 P    1.026    23 C    1.016    21 H    0.960
                            22 H    0.951
    21   1 H    0.998 --    20 C    0.960
    22   1 H    0.998 --    20 C    0.951
    23   6 C    3.995 --    20 C    1.016    24 H    0.985    25 H    0.985
                            26 H    0.984
    24   1 H    0.998 --    23 C    0.985
    25   1 H    0.999 --    23 C    0.985
    26   1 H    0.998 --    23 C    0.984
 ---------------------------------------------------------------------------

molecular dipole:
                 x           y           z       tot (Debye)
 q only:        0.077      -0.096       0.213
   full:        0.367      -0.119       0.506       1.617

 projected vibrational frequencies (cm⁻¹)
eigval :       -0.00    -0.00    -0.00    -0.00    -0.00     0.00
eigval :       -5.82    49.07    69.93    97.49   133.78   158.78
eigval :      199.19   214.60   229.84   266.63   295.93   332.32
eigval :      362.18   429.29   450.63   585.96   656.48   661.88
eigval :      687.36   698.93   736.57   759.87   777.65   873.84
eigval :      898.26   926.27   932.67   969.06   976.73   994.13
eigval :     1012.67  1018.34  1071.41  1076.90  1083.29  1117.26
eigval :     1121.01  1181.61  1197.95  1223.81  1228.86  1251.13
eigval :     1252.92  1279.82  1315.39  1409.85  1410.57  1423.34
eigval :     1439.06  1447.44  1457.21  1497.28  1498.77  1501.09
eigval :     1502.32  1579.74  1589.49  2928.16  2937.46  2948.41
eigval :     2951.01  3013.49  3014.25  3019.38  3024.93  3029.87
eigval :     3033.39  3063.16  3065.27  3073.42  3078.41  3087.91

   temp. (K)  partition function   enthalpy   heat capacity  entropy
                                   cal/mol     cal/K/mol   cal/K/mol   J/K/mol
 298.15  VIB  0.130E+06             6289.351     39.166     40.173
         ROT  0.122E+07              888.752      2.981     30.837
         INT  0.159E+12             7178.103     42.147     71.011
         TR   0.207E+28             1481.254      4.968     41.214
         TOT                        8659.3568    47.1154   112.2243   469.5467

       T/K    H(0)-H(T)+PV         H(T)/Eh          T*S/Eh         G(T)/Eh
   ------------------------------------------------------------------------
    298.15    0.137996E-01    0.232249E+00    0.533214E-01    0.178928E+00
   ------------------------------------------------------------------------

         :::::::::::::::::::::::::::::::::::::::::::::::::::::
         ::                  THERMODYNAMIC                  ::
         :::::::::::::::::::::::::::::::::::::::::::::::::::::
         :: total free energy         -31.377112006320 Eh   ::
         ::.................................................::
         :: total energy              -31.556039542889 Eh   ::
         :: zero point energy           0.218449381951 Eh   ::
         :: G(RRHO) w/o ZPVE           -0.039521845382 Eh   ::
         :: G(RRHO) contrib.            0.178927536569 Eh   ::
         :::::::::::::::::::::::::::::::::::::::::::::::::::::

           -------------------------------------------------
          | TOTAL ENERGY              -31.556039542889 Eh   |
          | TOTAL ENTHALPY            -31.323790597494 Eh   |
          | TOTAL FREE ENERGY         -31.377112006320 Eh   |
          | GRADIENT NORM               0.000043978305 Eh/α |
          | HOMO-LUMO GAP               3.654058028763 eV   |
           -------------------------------------------------

 * finished run on 2025/07/14 at 11:30:08.313
