   * xtb version 6.7.0 (08769fc) compiled by 'albert@albert-system' on 2024-03-04

   ID    Z sym.   atoms
    1   15 P      1
    2    6 C      2, 5, 9-14, 20, 23
    3    1 H      3, 4, 6-8, 15-19, 21, 22, 24-26

          program call               : /home/minenky/programs/xtb/xtb-dist/bin/xtb m1_00_PEt2Ph-PBE0-D3-TZ-uniMM_68.xyz --charge 0 --T --ohess extreme --cycles 5000 --acc 0.01 --iterations 5000
          :  Hamiltonian                  GFN2-xTB          :
 * total energy  :   -31.5330419 Eh     change        0.4263256E-13 Eh
 * total energy  :   -31.5428483 Eh     change       -0.9806420E-02 Eh
 * total energy  :   -31.5455667 Eh     change       -0.2718425E-02 Eh
 * total energy  :   -31.5468462 Eh     change       -0.1279444E-02 Eh
 * total energy  :   -31.5476412 Eh     change       -0.7950240E-03 Eh
 * total energy  :   -31.5484377 Eh     change       -0.7964994E-03 Eh
 * total energy  :   -31.5496050 Eh     change       -0.1167300E-02 Eh
 * total energy  :   -31.5507367 Eh     change       -0.1131671E-02 Eh
 * total energy  :   -31.5516150 Eh     change       -0.8783482E-03 Eh
 * total energy  :   -31.5520235 Eh     change       -0.4084836E-03 Eh
 * total energy  :   -31.5559176 Eh     change       -0.5314678E-06 Eh
 * total energy  :   -31.5559181 Eh     change       -0.4933744E-06 Eh
 * total energy  :   -31.5559185 Eh     change       -0.4663389E-06 Eh
 * total energy  :   -31.5559190 Eh     change       -0.4317234E-06 Eh
 * total energy  :   -31.5559194 Eh     change       -0.4100575E-06 Eh
 * total energy  :   -31.5559198 Eh     change       -0.3830384E-06 Eh
 * total energy  :   -31.5559201 Eh     change       -0.3676125E-06 Eh
 * total energy  :   -31.5559205 Eh     change       -0.3482179E-06 Eh
 * total energy  :   -31.5559205 Eh     change       -0.3098428E-08 Eh
   *** GEOMETRY OPTIMIZATION CONVERGED AFTER 122 ITERATIONS ***

 final structure:
================
26
 xtb: 6.7.0 (08769fc)
P            1.74555851181722       -0.26740438013780       -2.94061658629725
C            1.34748922291777       -0.40421265769853       -4.76192994758390
H            1.18152693828248        0.61868983369048       -5.11060393193079
H            2.25869278050285       -0.75836159353187       -5.25189376097573
C            0.16059675891084       -1.27864449576357       -5.14100080885612
H           -0.73234675909812       -0.97300572892782       -4.59830542452498
H            0.35500149845219       -2.32644920899626       -4.92575818650089
H           -0.03909179563745       -1.18722003080811       -6.20780368206976
C            0.07473962686738        0.17667555267434       -2.32603797583552
C           -0.60646183673254       -0.53046117995649       -1.34187109328654
C           -0.48757209701965        1.35743513556036       -2.80806772226561
C           -1.83868628744649       -0.09191398411768       -0.88834853154371
C           -1.71928028362600        1.79180467523372       -2.35894088685879
C           -2.40344282104018        1.06311029529822       -1.39951706475969
H           -0.18217980579223       -1.42869213677985       -0.91988873627330
H            0.05040160753854        1.93954557600484       -3.54368047025286
H           -2.35965571424094       -0.65741657947672       -0.12872690263495
H           -2.14576769789864        2.70330682545590       -2.75275928351288
H           -3.36696854193567        1.39968470272286       -1.04591442608608
C            1.82201453926830       -2.07078035998417       -2.46953146205708
H            1.95913678672039       -2.09848215162805       -1.38454773049375
H            0.88253141831343       -2.57371673924852       -2.71094569032468
C            3.00044925544192       -2.77057664080120       -3.13429587132637
H            3.92366611952142       -2.22842498222418       -2.93778447346422
H            2.86415571785108       -2.83236578537030       -4.21162010820434
H            3.10749285806342       -3.78298496118965       -2.74751524208056

          :  Hamiltonian                  GFN2-xTB          :
         :: gradient norm              0.000045396709 Eh/a0 ::
         :: HOMO-LUMO gap              3.633819147823 eV    ::
         :: SCC energy               -32.077062816541 Eh    ::
         :: -> dispersion             -0.024373773760 Eh    ::
         :: repulsion energy           0.521142339733 Eh    ::

    * Orbital Energies and Occupations

         #    Occupation            Energy/Eh            Energy/eV
      -------------------------------------------------------------
         1        2.0000           -0.6587645             -17.9259
       ...           ...                  ...                  ...
        18        2.0000           -0.4769481             -12.9784
        19        2.0000           -0.4738978             -12.8954
        20        2.0000           -0.4691235             -12.7655
        21        2.0000           -0.4617029             -12.5636
        22        2.0000           -0.4526771             -12.3180
        23        2.0000           -0.4452505             -12.1159
        24        2.0000           -0.4394418             -11.9578
        25        2.0000           -0.4248282             -11.5602
        26        2.0000           -0.4141312             -11.2691
        27        2.0000           -0.4080840             -11.1045
        28        2.0000           -0.4026783             -10.9574
        29        2.0000           -0.4007947             -10.9062
        30        2.0000           -0.3633459              -9.8871 (HOMO)
        31                         -0.2298055              -6.2533 (LUMO)
        32                         -0.2214732              -6.0266
        33                         -0.1550106              -4.2181
        34                         -0.1495110              -4.0684
        35                         -0.0932598              -2.5377
        36                          0.0123700               0.3366
        37                          0.0426146               1.1596
        38                          0.1032886               2.8106
        39                          0.1127308               3.0676
        40                          0.1170257               3.1844
        41                          0.1313483               3.5742
       ...                                ...                  ...
        64                          0.7991833              21.7469
      -------------------------------------------------------------
                  HL-Gap            0.1335404 Eh            3.6338 eV

     #   Z          covCN         q      C6AA      α(0)
     1  15 P        3.014    -0.112   165.308    23.098
     2   6 C        3.748    -0.044    21.429     6.603
     3   1 H        0.926     0.042     2.428     2.437
     4   1 H        0.926     0.041     2.435     2.440
     5   6 C        3.780    -0.094    22.321     6.731
     6   1 H        0.925     0.038     2.481     2.463
     7   1 H        0.925     0.038     2.478     2.462
     8   1 H        0.925     0.032     2.561     2.503
     9   6 C        2.915     0.010    27.792     8.645
    10   6 C        2.964    -0.034    28.833     8.808
    11   6 C        3.014    -0.030    28.735     8.793
    12   6 C        2.919    -0.031    28.765     8.795
    13   6 C        2.918    -0.030    28.758     8.794
    14   6 C        2.920    -0.031    28.779     8.797
    15   1 H        0.926     0.033     2.550     2.497
    16   1 H        0.925     0.034     2.535     2.490
    17   1 H        0.926     0.028     2.617     2.530
    18   1 H        0.926     0.029     2.606     2.525
    19   1 H        0.926     0.028     2.612     2.527
    20   6 C        3.748    -0.045    21.450     6.606
    21   1 H        0.926     0.040     2.443     2.444
    22   1 H        0.925     0.047     2.364     2.404
    23   6 C        3.816    -0.097    22.335     6.726
    24   1 H        0.925     0.041     2.432     2.439
    25   1 H        0.925     0.037     2.487     2.466
    26   1 H        0.925     0.032     2.554     2.499

Wiberg/Mayer (AO) data.
largest (>0.10) Wiberg bond orders for each atom

     #   Z sym  total        # sym  WBO       # sym  WBO       # sym  WBO
 ---------------------------------------------------------------------------
     1  15 P    3.379 --    20 C    1.026     9 C    1.020     2 C    1.015
     2   6 C    3.994 --     1 P    1.015     5 C    1.012     4 H    0.956
                             3 H    0.954
     3   1 H    0.998 --     2 C    0.954
     4   1 H    0.998 --     2 C    0.956
     5   6 C    3.997 --     2 C    1.012     7 H    0.984     8 H    0.983
                             6 H    0.983
     6   1 H    0.999 --     5 C    0.983
     7   1 H    0.999 --     5 C    0.984
     8   1 H    0.999 --     5 C    0.983
     9   6 C    3.981 --    10 C    1.401    11 C    1.389     1 P    1.020
                            14 C    0.105
    10   6 C    3.993 --    12 C    1.442     9 C    1.401    15 H    0.963
                            13 C    0.107
    11   6 C    3.992 --    13 C    1.456     9 C    1.389    16 H    0.962
                            12 C    0.109
    12   6 C    3.993 --    10 C    1.442    14 C    1.441    17 H    0.970
                            11 C    0.109
    13   6 C    3.992 --    11 C    1.456    14 C    1.428    18 H    0.970
                            10 C    0.107
    14   6 C    3.991 --    12 C    1.441    13 C    1.428    19 H    0.971
                             9 C    0.105
    15   1 H    0.999 --    10 C    0.963
    16   1 H    0.999 --    11 C    0.962
    17   1 H    0.999 --    12 C    0.970
    18   1 H    0.999 --    13 C    0.970
    19   1 H    0.999 --    14 C    0.971
    20   6 C    3.995 --     1 P    1.026    23 C    1.015    21 H    0.956
                            22 H    0.951
    21   1 H    0.998 --    20 C    0.956
    22   1 H    0.998 --    20 C    0.951
    23   6 C    3.996 --    20 C    1.015    26 H    0.984    24 H    0.984
                            25 H    0.984
    24   1 H    0.998 --    23 C    0.984
    25   1 H    0.999 --    23 C    0.984
    26   1 H    0.999 --    23 C    0.984
 ---------------------------------------------------------------------------

molecular dipole:
                 x           y           z       tot (Debye)
 q only:       -0.065      -0.284      -0.200
   full:       -0.360      -0.482      -0.278       1.683

 projected vibrational frequencies (cm⁻¹)
eigval :       -0.00     0.00     0.00     0.00     0.00     0.00
eigval :       24.53    72.48    84.80   127.28   130.49   200.74
eigval :      204.78   228.84   262.65   277.63   283.49   358.46
eigval :      362.86   404.00   473.61   585.98   637.95   656.80
eigval :      683.18   704.26   729.82   746.35   790.97   870.56
eigval :      893.92   924.82   930.97   968.47   974.87   998.72
eigval :     1012.95  1021.95  1065.70  1073.40  1086.19  1115.62
eigval :     1123.75  1182.00  1203.74  1225.85  1227.55  1252.08
eigval :     1266.72  1282.86  1316.80  1408.70  1410.85  1421.63
eigval :     1451.30  1456.67  1461.88  1497.17  1501.21  1505.35
eigval :     1507.90  1577.23  1588.95  2938.63  2942.07  2948.71
eigval :     2961.44  3011.07  3013.07  3024.72  3024.85  3035.22
eigval :     3039.57  3061.48  3068.53  3075.01  3087.07  3093.90

   temp. (K)  partition function   enthalpy   heat capacity  entropy
                                   cal/mol     cal/K/mol   cal/K/mol   J/K/mol
 298.15  VIB  0.123E+05             6085.472     39.517     36.987
         ROT  0.113E+07              888.752      2.981     30.681
         INT  0.139E+11             6974.225     42.498     67.668
         TR   0.207E+28             1481.254      4.968     41.214
         TOT                        8455.4786    47.4664   108.8820   455.5623

       T/K    H(0)-H(T)+PV         H(T)/Eh          T*S/Eh         G(T)/Eh
   ------------------------------------------------------------------------
    298.15    0.134747E-01    0.232556E+00    0.517333E-01    0.180823E+00
   ------------------------------------------------------------------------

         :::::::::::::::::::::::::::::::::::::::::::::::::::::
         ::                  THERMODYNAMIC                  ::
         :::::::::::::::::::::::::::::::::::::::::::::::::::::
         :: total free energy         -31.375097706369 Eh   ::
         ::.................................................::
         :: total energy              -31.555920476808 Eh   ::
         :: zero point energy           0.219081456497 Eh   ::
         :: G(RRHO) w/o ZPVE           -0.038258686057 Eh   ::
         :: G(RRHO) contrib.            0.180822770440 Eh   ::
         :::::::::::::::::::::::::::::::::::::::::::::::::::::

           -------------------------------------------------
          | TOTAL ENERGY              -31.555920476808 Eh   |
          | TOTAL ENTHALPY            -31.323364357522 Eh   |
          | TOTAL FREE ENERGY         -31.375097706369 Eh   |
          | GRADIENT NORM               0.000045396802 Eh/α |
          | HOMO-LUMO GAP               3.633819092355 eV   |
           -------------------------------------------------

 * finished run on 2025/07/14 at 11:37:52.285
