   * xtb version 6.7.0 (08769fc) compiled by 'albert@albert-system' on 2024-03-04

   ID    Z sym.   atoms
    1   15 P      1
    2    6 C      2, 5, 9-14, 20, 23
    3    1 H      3, 4, 6-8, 15-19, 21, 22, 24-26

          program call               : /home/minenky/programs/xtb/xtb-dist/bin/xtb m1_00_PEt2Ph-PBE0-D3-TZ-uniMM_8.xyz --charge 0 --T --ohess extreme --cycles 5000 --acc 0.01 --iterations 5000
          :  Hamiltonian                  GFN2-xTB          :
 * total energy  :   -31.5474015 Eh     change       -0.2913225E-12 Eh
 * total energy  :   -31.5526803 Eh     change       -0.5278757E-02 Eh
 * total energy  :   -31.5536346 Eh     change       -0.9543488E-03 Eh
 * total energy  :   -31.5540811 Eh     change       -0.4464933E-03 Eh
 * total energy  :   -31.5541889 Eh     change       -0.1078052E-03 Eh
 * total energy  :   -31.5542479 Eh     change       -0.5896380E-04 Eh
 * total energy  :   -31.5542810 Eh     change       -0.3306970E-04 Eh
 * total energy  :   -31.5543057 Eh     change       -0.2472501E-04 Eh
 * total energy  :   -31.5543645 Eh     change       -0.5883039E-04 Eh
 * total energy  :   -31.5544518 Eh     change       -0.8729157E-04 Eh
 * total energy  :   -31.5560212 Eh     change       -0.1106778E-06 Eh
 * total energy  :   -31.5560215 Eh     change       -0.2721762E-06 Eh
 * total energy  :   -31.5560218 Eh     change       -0.3582653E-06 Eh
 * total energy  :   -31.5560221 Eh     change       -0.2542412E-06 Eh
 * total energy  :   -31.5560222 Eh     change       -0.1681303E-06 Eh
 * total energy  :   -31.5560224 Eh     change       -0.1443781E-06 Eh
 * total energy  :   -31.5560225 Eh     change       -0.1475046E-06 Eh
 * total energy  :   -31.5560227 Eh     change       -0.1461863E-06 Eh
 * total energy  :   -31.5560227 Eh     change       -0.4706671E-08 Eh
   *** GEOMETRY OPTIMIZATION CONVERGED AFTER 44 ITERATIONS ***

 final structure:
================
26
 xtb: 6.7.0 (08769fc)
P            1.86265670571756       -0.28479053663464       -3.11649383448657
C            2.15797201274759        1.55088957609431       -2.93241686562635
H            1.99930817387441        1.86644154217607       -1.89801763150691
H            3.20206582624526        1.73864132615466       -3.19774358450247
C            1.24015777387600        2.33573998944859       -3.86203408573918
H            0.19549836190616        2.15941809996105       -3.61287821733131
H            1.39776163044090        2.03281264046589       -4.89505031893169
H            1.43532974435041        3.40395063457605       -3.78161598967294
C            3.25438326709655       -0.95150325475652       -2.11362694044771
C            3.78637707602729       -0.32773560300115       -0.99124580958265
C            3.77575003135448       -2.17767450266912       -2.51304822587166
C            4.81708453301227       -0.92186085627003       -0.28580533302361
C            4.80222752099377       -2.77506643682989       -1.80431746317320
C            5.32583531577795       -2.14579288923406       -0.68789672296106
H            3.40082562375366        0.62557541788932       -0.66027650809720
H            3.36445429186204       -2.65995985456728       -3.38939045243625
H            5.22501604808202       -0.42796690402525        0.58489696872849
H            5.19569262740292       -3.72967199929280       -2.12289812035322
H            6.12940209159951       -2.60635473354026       -0.13181894486589
C            0.52524679496604       -0.47349878690815       -1.82512667262657
H            0.86431405548617       -0.03428939802854       -0.88203786486973
H           -0.34561736575148        0.08716553281956       -2.17556203534742
C            0.15645392383758       -1.93682571773556       -1.62864550884202
H            1.01730270113283       -2.50181511436747       -1.27426637099419
H           -0.17502168748532       -2.37495409955248       -2.56802428409254
H           -0.64565207830535       -2.03643607217336       -0.89905118334639

          :  Hamiltonian                  GFN2-xTB          :
         :: gradient norm              0.000040328782 Eh/a0 ::
         :: HOMO-LUMO gap              3.667803664323 eV    ::
         :: SCC energy               -32.076545096931 Eh    ::
         :: -> dispersion             -0.023587145346 Eh    ::
         :: repulsion energy           0.520522415319 Eh    ::

    * Orbital Energies and Occupations

         #    Occupation            Energy/Eh            Energy/eV
      -------------------------------------------------------------
         1        2.0000           -0.6580609             -17.9067
       ...           ...                  ...                  ...
        18        2.0000           -0.4772832             -12.9875
        19        2.0000           -0.4744927             -12.9116
        20        2.0000           -0.4633160             -12.6075
        21        2.0000           -0.4617823             -12.5657
        22        2.0000           -0.4524152             -12.3108
        23        2.0000           -0.4446561             -12.0997
        24        2.0000           -0.4381991             -11.9240
        25        2.0000           -0.4230288             -11.5112
        26        2.0000           -0.4182354             -11.3808
        27        2.0000           -0.4045851             -11.0093
        28        2.0000           -0.4040352             -10.9944
        29        2.0000           -0.3968817             -10.7997
        30        2.0000           -0.3672808              -9.9942 (HOMO)
        31                         -0.2324915              -6.3264 (LUMO)
        32                         -0.2227435              -6.0612
        33                         -0.1561035              -4.2478
        34                         -0.1514360              -4.1208
        35                         -0.0928351              -2.5262
        36                         -0.0021075              -0.0573
        37                          0.0593262               1.6143
        38                          0.0917593               2.4969
        39                          0.1098769               2.9899
        40                          0.1324839               3.6051
        41                          0.1365078               3.7146
       ...                                ...                  ...
        64                          0.7813199              21.2608
      -------------------------------------------------------------
                  HL-Gap            0.1347893 Eh            3.6678 eV

     #   Z          covCN         q      C6AA      α(0)
     1  15 P        3.058    -0.114   165.382    23.102
     2   6 C        3.748    -0.048    21.494     6.613
     3   1 H        0.925     0.041     2.432     2.439
     4   1 H        0.925     0.040     2.448     2.447
     5   6 C        3.823    -0.098    22.349     6.727
     6   1 H        0.925     0.036     2.497     2.471
     7   1 H        0.925     0.042     2.421     2.433
     8   1 H        0.925     0.033     2.548     2.496
     9   6 C        2.916     0.008    27.845     8.653
    10   6 C        2.960    -0.030    28.741     8.793
    11   6 C        3.019    -0.030    28.730     8.792
    12   6 C        2.919    -0.031    28.768     8.796
    13   6 C        2.918    -0.030    28.748     8.792
    14   6 C        2.920    -0.029    28.735     8.791
    15   1 H        0.926     0.032     2.562     2.503
    16   1 H        0.925     0.039     2.458     2.452
    17   1 H        0.926     0.028     2.612     2.527
    18   1 H        0.926     0.030     2.586     2.515
    19   1 H        0.926     0.029     2.599     2.521
    20   6 C        3.748    -0.045    21.446     6.605
    21   1 H        0.925     0.042     2.420     2.433
    22   1 H        0.925     0.040     2.449     2.447
    23   6 C        3.818    -0.097    22.334     6.726
    24   1 H        0.925     0.036     2.502     2.474
    25   1 H        0.925     0.042     2.425     2.435
    26   1 H        0.925     0.033     2.551     2.498

Wiberg/Mayer (AO) data.
largest (>0.10) Wiberg bond orders for each atom

     #   Z sym  total        # sym  WBO       # sym  WBO       # sym  WBO
 ---------------------------------------------------------------------------
     1  15 P    3.344 --     2 C    1.027    20 C    1.019     9 C    1.008
     2   6 C    3.995 --     1 P    1.027     5 C    1.016     4 H    0.960
                             3 H    0.952
     3   1 H    0.998 --     2 C    0.952
     4   1 H    0.998 --     2 C    0.960
     5   6 C    3.996 --     2 C    1.016     7 H    0.985     8 H    0.985
                             6 H    0.984
     6   1 H    0.999 --     5 C    0.984
     7   1 H    0.998 --     5 C    0.985
     8   1 H    0.998 --     5 C    0.985
     9   6 C    3.983 --    11 C    1.406    10 C    1.401     1 P    1.008
                            14 C    0.108
    10   6 C    3.993 --    12 C    1.448     9 C    1.401    15 H    0.963
                            13 C    0.110
    11   6 C    3.991 --    13 C    1.444     9 C    1.406    16 H    0.964
                            12 C    0.109
    12   6 C    3.993 --    10 C    1.448    14 C    1.434    17 H    0.970
                            11 C    0.109
    13   6 C    3.992 --    11 C    1.444    14 C    1.439    18 H    0.970
                            10 C    0.110
    14   6 C    3.991 --    13 C    1.439    12 C    1.434    19 H    0.971
                             9 C    0.108
    15   1 H    0.999 --    10 C    0.963
    16   1 H    0.998 --    11 C    0.964
    17   1 H    0.999 --    12 C    0.970
    18   1 H    0.999 --    13 C    0.970
    19   1 H    0.998 --    14 C    0.971
    20   6 C    3.996 --     1 P    1.019    23 C    1.017    22 H    0.957
                            21 H    0.952
    21   1 H    0.998 --    20 C    0.952
    22   1 H    0.998 --    20 C    0.957
    23   6 C    3.997 --    20 C    1.017    25 H    0.985    26 H    0.984
                            24 H    0.984
    24   1 H    0.999 --    23 C    0.984
    25   1 H    0.998 --    23 C    0.985
    26   1 H    0.999 --    23 C    0.984
 ---------------------------------------------------------------------------

molecular dipole:
                 x           y           z       tot (Debye)
 q only:       -0.091       0.124       0.197
   full:       -0.017       0.269       0.574       1.613

 projected vibrational frequencies (cm⁻¹)
eigval :       -0.00    -0.00    -0.00     0.00     0.00     0.00
eigval :       11.24    53.34    72.62    99.68   131.20   159.73
eigval :      199.54   215.04   232.95   266.24   290.32   334.10
eigval :      361.51   429.15   452.51   586.00   656.97   661.87
eigval :      687.26   699.05   735.78   762.41   779.41   873.53
eigval :      897.98   926.22   932.61   969.15   977.13   993.99
eigval :     1012.31  1018.73  1071.08  1077.24  1083.45  1117.38
eigval :     1120.84  1181.62  1198.26  1224.49  1229.54  1251.12
eigval :     1252.28  1280.02  1315.42  1409.71  1410.98  1423.32
eigval :     1438.66  1448.33  1457.46  1497.25  1498.84  1500.96
eigval :     1502.53  1579.64  1589.40  2925.59  2936.17  2948.04
eigval :     2951.10  3013.88  3014.31  3020.11  3024.55  3030.00
eigval :     3033.51  3061.87  3066.17  3074.33  3080.34  3088.03

   temp. (K)  partition function   enthalpy   heat capacity  entropy
                                   cal/mol     cal/K/mol   cal/K/mol   J/K/mol
 298.15  VIB  0.607E+05             6270.528     39.266     39.436
         ROT  0.122E+07              888.752      2.981     30.836
         INT  0.743E+11             7159.280     42.247     70.272
         TR   0.207E+28             1481.254      4.968     41.214
         TOT                        8640.5343    47.2155   111.4859   466.4572

       T/K    H(0)-H(T)+PV         H(T)/Eh          T*S/Eh         G(T)/Eh
   ------------------------------------------------------------------------
    298.15    0.137696E-01    0.232263E+00    0.529706E-01    0.179292E+00
   ------------------------------------------------------------------------

         :::::::::::::::::::::::::::::::::::::::::::::::::::::
         ::                  THERMODYNAMIC                  ::
         :::::::::::::::::::::::::::::::::::::::::::::::::::::
         :: total free energy         -31.376730553467 Eh   ::
         ::.................................................::
         :: total energy              -31.556022681612 Eh   ::
         :: zero point energy           0.218493125874 Eh   ::
         :: G(RRHO) w/o ZPVE           -0.039200997729 Eh   ::
         :: G(RRHO) contrib.            0.179292128145 Eh   ::
         :::::::::::::::::::::::::::::::::::::::::::::::::::::

           -------------------------------------------------
          | TOTAL ENERGY              -31.556022681612 Eh   |
          | TOTAL ENTHALPY            -31.323759987880 Eh   |
          | TOTAL FREE ENERGY         -31.376730553467 Eh   |
          | GRADIENT NORM               0.000040329681 Eh/α |
          | HOMO-LUMO GAP               3.667803654944 eV   |
           -------------------------------------------------

 * finished run on 2025/07/14 at 11:38:58.445
