   * xtb version 6.7.0 (08769fc) compiled by 'albert@albert-system' on 2024-03-04

   ID    Z sym.   atoms
    1   15 P      1
    2    6 C      2, 5, 9-14, 20, 23
    3    1 H      3, 4, 6-8, 15-19, 21, 22, 24-26

          program call               : /home/minenky/programs/xtb/xtb-dist/bin/xtb m1_00_PEt2Ph-PBE0-D3-TZ-uniMM_31.xyz --charge 0 --T --ohess extreme --cycles 5000 --acc 0.01 --iterations 5000
          :  Hamiltonian                  GFN2-xTB          :
 * total energy  :   -31.5470482 Eh     change       -0.4263256E-13 Eh
 * total energy  :   -31.5515946 Eh     change       -0.4546439E-02 Eh
 * total energy  :   -31.5528918 Eh     change       -0.1297179E-02 Eh
 * total energy  :   -31.5534032 Eh     change       -0.5113378E-03 Eh
 * total energy  :   -31.5536638 Eh     change       -0.2606334E-03 Eh
 * total energy  :   -31.5538820 Eh     change       -0.2181778E-03 Eh
 * total energy  :   -31.5541139 Eh     change       -0.2318976E-03 Eh
 * total energy  :   -31.5543403 Eh     change       -0.2264337E-03 Eh
 * total energy  :   -31.5545509 Eh     change       -0.2105591E-03 Eh
 * total energy  :   -31.5547455 Eh     change       -0.1945880E-03 Eh
 * total energy  :   -31.5556545 Eh     change       -0.1115564E-05 Eh
 * total energy  :   -31.5556554 Eh     change       -0.8868110E-06 Eh
 * total energy  :   -31.5556561 Eh     change       -0.7024321E-06 Eh
 * total energy  :   -31.5556567 Eh     change       -0.5684858E-06 Eh
 * total energy  :   -31.5556572 Eh     change       -0.4805503E-06 Eh
 * total energy  :   -31.5556576 Eh     change       -0.4302466E-06 Eh
 * total energy  :   -31.5556580 Eh     change       -0.3908965E-06 Eh
 * total energy  :   -31.5556584 Eh     change       -0.4092348E-06 Eh
 * total energy  :   -31.5556584 Eh     change       -0.3238437E-08 Eh
   *** GEOMETRY OPTIMIZATION CONVERGED AFTER 94 ITERATIONS ***

 final structure:
================
26
 xtb: 6.7.0 (08769fc)
P            1.46755644646996       -0.22517611756417       -3.06898207156133
C           -0.36295997501796        0.13024114450199       -3.20149571904051
H           -0.45433993880656        1.21075527710880       -3.34204587513137
H           -0.69969232358770       -0.34389476193045       -4.12820151978214
C           -1.23105282641273       -0.31281700127729       -2.03190039192668
H           -0.85849696321620        0.10172819890542       -1.09681040259468
H           -1.25519193525158       -1.39624655841925       -1.94621249379129
H           -2.25238502113688        0.03595232984694       -2.17802755195555
C            1.75132758188067        0.49541768969200       -1.40440633290821
C            2.14876226367987       -0.21335116555234       -0.27769428026595
C            1.62596151176649        1.88070444332112       -1.31300123999564
C            2.37604242802556        0.44461921477473        0.91925404527480
C            1.84614548508284        2.53578141300475       -0.11753120277124
C            2.21917067606195        1.81640822189623        1.00657151501036
H            2.28371179207165       -1.28337171917938       -0.31797902701434
H            1.35154070090579        2.44401734069742       -2.19492711757151
H            2.67859379047379       -0.12072473149222        1.78948209496894
H            1.73338949468226        3.60901611875110       -0.06093927638722
H            2.39453905112431        2.32454926316194        1.94348759601781
C            1.38748764079252       -2.05442512505650       -2.71740633188502
H            0.93571829014037       -2.24520666997663       -1.74147600556516
H            0.73555120629388       -2.48343720630906       -3.48432644869724
C            2.76886085376340       -2.69208030191527       -2.81375672072069
H            3.45747151041432       -2.24527140003199       -2.09918126119615
H            3.18157334088098       -2.54470026173805       -3.80962688824735
H            2.71298191891899       -3.76208163521905       -2.61777109226258

          :  Hamiltonian                  GFN2-xTB          :
         :: gradient norm              0.000046333973 Eh/a0 ::
         :: HOMO-LUMO gap              3.647091001811 eV    ::
         :: SCC energy               -32.076655687736 Eh    ::
         :: -> dispersion             -0.024316054354 Eh    ::
         :: repulsion energy           0.520997271665 Eh    ::

    * Orbital Energies and Occupations

         #    Occupation            Energy/Eh            Energy/eV
      -------------------------------------------------------------
         1        2.0000           -0.6588094             -17.9271
       ...           ...                  ...                  ...
        18        2.0000           -0.4752444             -12.9321
        19        2.0000           -0.4741799             -12.9031
        20        2.0000           -0.4670914             -12.7102
        21        2.0000           -0.4609843             -12.5440
        22        2.0000           -0.4564798             -12.4214
        23        2.0000           -0.4433631             -12.0645
        24        2.0000           -0.4383464             -11.9280
        25        2.0000           -0.4241162             -11.5408
        26        2.0000           -0.4159965             -11.3198
        27        2.0000           -0.4074946             -11.0885
        28        2.0000           -0.4028242             -10.9614
        29        2.0000           -0.3996808             -10.8759
        30        2.0000           -0.3639655              -9.9040 (HOMO)
        31                         -0.2299374              -6.2569 (LUMO)
        32                         -0.2214932              -6.0271
        33                         -0.1554824              -4.2309
        34                         -0.1499374              -4.0800
        35                         -0.0931572              -2.5349
        36                          0.0041959               0.1142
        37                          0.0487822               1.3274
        38                          0.0971687               2.6441
        39                          0.1137325               3.0948
        40                          0.1210402               3.2937
        41                          0.1304022               3.5484
       ...                                ...                  ...
        64                          0.7752259              21.0950
      -------------------------------------------------------------
                  HL-Gap            0.1340281 Eh            3.6471 eV

     #   Z          covCN         q      C6AA      α(0)
     1  15 P        3.025    -0.112   165.325    23.099
     2   6 C        3.748    -0.046    21.465     6.608
     3   1 H        0.926     0.042     2.424     2.435
     4   1 H        0.926     0.040     2.451     2.448
     5   6 C        3.781    -0.096    22.349     6.735
     6   1 H        0.925     0.038     2.472     2.459
     7   1 H        0.925     0.037     2.485     2.465
     8   1 H        0.925     0.033     2.539     2.492
     9   6 C        2.915     0.012    27.746     8.638
    10   6 C        2.958    -0.033    28.824     8.806
    11   6 C        3.028    -0.030    28.723     8.791
    12   6 C        2.920    -0.031    28.784     8.798
    13   6 C        2.918    -0.030    28.752     8.793
    14   6 C        2.920    -0.031    28.778     8.797
    15   1 H        0.926     0.036     2.505     2.475
    16   1 H        0.925     0.034     2.529     2.487
    17   1 H        0.926     0.027     2.628     2.535
    18   1 H        0.926     0.028     2.608     2.526
    19   1 H        0.926     0.028     2.618     2.530
    20   6 C        3.748    -0.046    21.463     6.608
    21   1 H        0.925     0.046     2.367     2.406
    22   1 H        0.926     0.040     2.443     2.444
    23   6 C        3.819    -0.098    22.344     6.727
    24   1 H        0.925     0.039     2.467     2.456
    25   1 H        0.925     0.041     2.435     2.440
    26   1 H        0.925     0.031     2.569     2.507

Wiberg/Mayer (AO) data.
largest (>0.10) Wiberg bond orders for each atom

     #   Z sym  total        # sym  WBO       # sym  WBO       # sym  WBO
 ---------------------------------------------------------------------------
     1  15 P    3.375 --    20 C    1.029     9 C    1.019     2 C    1.013
     2   6 C    3.994 --     1 P    1.013     5 C    1.012     4 H    0.957
                             3 H    0.956
     3   1 H    0.998 --     2 C    0.956
     4   1 H    0.998 --     2 C    0.957
     5   6 C    3.997 --     2 C    1.012     7 H    0.985     6 H    0.983
                             8 H    0.983
     6   1 H    0.999 --     5 C    0.983
     7   1 H    0.999 --     5 C    0.985
     8   1 H    0.999 --     5 C    0.983
     9   6 C    3.982 --    10 C    1.404    11 C    1.389     1 P    1.019
                            14 C    0.106
    10   6 C    3.993 --    12 C    1.439     9 C    1.404    15 H    0.961
                            13 C    0.107
    11   6 C    3.992 --    13 C    1.457     9 C    1.389    16 H    0.962
                            12 C    0.110
    12   6 C    3.993 --    14 C    1.442    10 C    1.439    17 H    0.970
                            11 C    0.110
    13   6 C    3.991 --    11 C    1.457    14 C    1.427    18 H    0.970
                            10 C    0.107
    14   6 C    3.992 --    12 C    1.442    13 C    1.427    19 H    0.971
                             9 C    0.106
    15   1 H    0.999 --    10 C    0.961
    16   1 H    0.999 --    11 C    0.962
    17   1 H    0.999 --    12 C    0.970
    18   1 H    0.999 --    13 C    0.970
    19   1 H    0.998 --    14 C    0.971
    20   6 C    3.994 --     1 P    1.029    23 C    1.016    22 H    0.956
                            21 H    0.950
    21   1 H    0.998 --    20 C    0.950
    22   1 H    0.998 --    20 C    0.956
    23   6 C    3.997 --    20 C    1.016    25 H    0.985    26 H    0.985
                            24 H    0.983
    24   1 H    0.998 --    23 C    0.983
    25   1 H    0.998 --    23 C    0.985
    26   1 H    0.999 --    23 C    0.985
 ---------------------------------------------------------------------------

molecular dipole:
                 x           y           z       tot (Debye)
 q only:       -0.238      -0.201       0.081
   full:       -0.448      -0.294       0.371       1.657

 projected vibrational frequencies (cm⁻¹)
eigval :       -0.00    -0.00    -0.00     0.00     0.00     0.00
eigval :       24.35    66.47    88.56   113.62   161.81   172.14
eigval :      200.46   222.16   249.38   265.17   312.06   362.25
eigval :      366.93   391.56   474.26   585.80   648.45   659.46
eigval :      679.38   689.63   737.03   760.41   769.88   872.65
eigval :      895.82   925.79   931.51   967.51   983.08   995.46
eigval :     1013.66  1017.27  1063.81  1077.65  1085.13  1115.17
eigval :     1123.67  1181.84  1204.04  1223.41  1230.49  1251.36
eigval :     1268.05  1280.62  1317.19  1408.18  1412.95  1421.32
eigval :     1449.46  1452.13  1461.29  1496.40  1499.41  1505.26
eigval :     1505.99  1577.85  1589.13  2936.41  2941.66  2950.33
eigval :     2956.68  3011.48  3012.04  3023.86  3025.93  3034.61
eigval :     3041.53  3056.64  3067.64  3074.50  3086.91  3094.23

   temp. (K)  partition function   enthalpy   heat capacity  entropy
                                   cal/mol     cal/K/mol   cal/K/mol   J/K/mol
 298.15  VIB  0.137E+05             6110.614     39.504     37.221
         ROT  0.116E+07              888.752      2.981     30.725
         INT  0.159E+11             6999.366     42.485     67.946
         TR   0.207E+28             1481.254      4.968     41.214
         TOT                        8480.6201    47.4533   109.1595   456.7232

       T/K    H(0)-H(T)+PV         H(T)/Eh          T*S/Eh         G(T)/Eh
   ------------------------------------------------------------------------
    298.15    0.135147E-01    0.232493E+00    0.518652E-01    0.180628E+00
   ------------------------------------------------------------------------

         :::::::::::::::::::::::::::::::::::::::::::::::::::::
         ::                  THERMODYNAMIC                  ::
         :::::::::::::::::::::::::::::::::::::::::::::::::::::
         :: total free energy         -31.375030909687 Eh   ::
         ::.................................................::
         :: total energy              -31.555658416071 Eh   ::
         :: zero point energy           0.218977961110 Eh   ::
         :: G(RRHO) w/o ZPVE           -0.038350454726 Eh   ::
         :: G(RRHO) contrib.            0.180627506384 Eh   ::
         :::::::::::::::::::::::::::::::::::::::::::::::::::::

           -------------------------------------------------
          | TOTAL ENERGY              -31.555658416071 Eh   |
          | TOTAL ENTHALPY            -31.323165726597 Eh   |
          | TOTAL FREE ENERGY         -31.375030909687 Eh   |
          | GRADIENT NORM               0.000046333969 Eh/α |
          | HOMO-LUMO GAP               3.647090978666 eV   |
           -------------------------------------------------

 * finished run on 2025/07/14 at 11:30:01.471
