   * xtb version 6.7.0 (08769fc) compiled by 'albert@albert-system' on 2024-03-04

   ID    Z sym.   atoms
    1   15 P      1
    2    6 C      2, 5, 9-14, 20, 23
    3    1 H      3, 4, 6-8, 15-19, 21, 22, 24-26

          program call               : /home/minenky/programs/xtb/xtb-dist/bin/xtb m1_00_PEt2Ph-PBE0-D3-TZ-uniMM_61.xyz --charge 0 --T --ohess extreme --cycles 5000 --acc 0.01 --iterations 5000
          :  Hamiltonian                  GFN2-xTB          :
 * total energy  :   -31.5343783 Eh     change       -0.1421085E-13 Eh
 * total energy  :   -31.5434982 Eh     change       -0.9119898E-02 Eh
 * total energy  :   -31.5456296 Eh     change       -0.2131411E-02 Eh
 * total energy  :   -31.5464363 Eh     change       -0.8067656E-03 Eh
 * total energy  :   -31.5468114 Eh     change       -0.3750445E-03 Eh
 * total energy  :   -31.5472225 Eh     change       -0.4111641E-03 Eh
 * total energy  :   -31.5477418 Eh     change       -0.5192736E-03 Eh
 * total energy  :   -31.5483005 Eh     change       -0.5587004E-03 Eh
 * total energy  :   -31.5488209 Eh     change       -0.5204239E-03 Eh
 * total energy  :   -31.5490552 Eh     change       -0.2342241E-03 Eh
 * total energy  :   -31.5522452 Eh     change       -0.2703301E-06 Eh
 * total energy  :   -31.5522454 Eh     change       -0.2326122E-06 Eh
 * total energy  :   -31.5522456 Eh     change       -0.2119900E-06 Eh
 * total energy  :   -31.5522458 Eh     change       -0.1800774E-06 Eh
 * total energy  :   -31.5522460 Eh     change       -0.1581983E-06 Eh
 * total energy  :   -31.5522461 Eh     change       -0.1342660E-06 Eh
 * total energy  :   -31.5522462 Eh     change       -0.1165268E-06 Eh
 * total energy  :   -31.5522463 Eh     change       -0.9644986E-07 Eh
 * total energy  :   -31.5522463 Eh     change       -0.7144649E-09 Eh
   *** GEOMETRY OPTIMIZATION CONVERGED AFTER 68 ITERATIONS ***

 final structure:
================
26
 xtb: 6.7.0 (08769fc)
P            1.64321762523862       -0.08922794573863       -2.84967053955005
C            1.45364285491566       -1.01119014294518       -1.23867422422408
H            1.98694604762975       -0.41292285352377       -0.49362245236473
H            0.38892008074597       -0.92657221751484       -0.99560357325255
C            1.87732671077790       -2.47172463603339       -1.15370512326537
H            2.90374510387357       -2.60970725429703       -1.48622945368831
H            1.22655276156086       -3.09963388921578       -1.75714025184991
H            1.80523379175745       -2.81204590002336       -0.12090445340988
C            3.43910322848684       -0.18343656868585       -3.18348869417978
C            3.85142181829420        0.14641053145034       -4.47431833564205
C            4.40673844214037       -0.41550254162356       -2.21337909280244
C            5.19225694043190        0.17922485895783       -4.80266486302147
C            5.75071747509908       -0.38114328525929       -2.54336638777570
C            6.14803838451403       -0.09586829069468       -3.83771836973069
H            3.10523421014273        0.38589575377179       -5.22045957068229
H            4.12152487263118       -0.61907767870699       -1.19232259583662
H            5.49549994734249        0.42587155053477       -5.81027960670788
H            6.49249224049628       -0.57573401092942       -1.78158473550080
H            7.19776103543339       -0.07403129561203       -4.09138762077130
C            0.98804468553372       -1.34406758042164       -4.08138877090236
H            0.10298680904291       -1.77408704732937       -3.60300629369964
H            0.63062591530097       -0.76420766991475       -4.93799806554297
C            1.91595025840098       -2.44539888522429       -4.57885578570387
H            2.33011021633624       -3.02758728978555       -3.76165277918771
H            2.74469440259415       -2.03024934594807       -5.14711940327445
H            1.35960114127673       -3.11756536528607       -5.23155095743201

          :  Hamiltonian                  GFN2-xTB          :
         :: gradient norm              0.000021687366 Eh/a0 ::
         :: HOMO-LUMO gap              3.567877908325 eV    ::
         :: SCC energy               -32.072910423198 Eh    ::
         :: -> dispersion             -0.025059165509 Eh    ::
         :: repulsion energy           0.520664119888 Eh    ::

    * Orbital Energies and Occupations

         #    Occupation            Energy/Eh            Energy/eV
      -------------------------------------------------------------
         1        2.0000           -0.6585180             -17.9192
       ...           ...                  ...                  ...
        18        2.0000           -0.4755091             -12.9393
        19        2.0000           -0.4742409             -12.9048
        20        2.0000           -0.4673333             -12.7168
        21        2.0000           -0.4661343             -12.6842
        22        2.0000           -0.4546902             -12.3728
        23        2.0000           -0.4439916             -12.0816
        24        2.0000           -0.4429746             -12.0540
        25        2.0000           -0.4234827             -11.5236
        26        2.0000           -0.4137691             -11.2592
        27        2.0000           -0.4073774             -11.0853
        28        2.0000           -0.4016365             -10.9291
        29        2.0000           -0.4008184             -10.9068
        30        2.0000           -0.3609091              -9.8208 (HOMO)
        31                         -0.2297920              -6.2530 (LUMO)
        32                         -0.2211322              -6.0173
        33                         -0.1563612              -4.2548
        34                         -0.1484932              -4.0407
        35                         -0.0932490              -2.5374
        36                         -0.0101028              -0.2749
        37                          0.0642818               1.7492
        38                          0.0850962               2.3156
        39                          0.1147828               3.1234
        40                          0.1183676               3.2209
        41                          0.1337520               3.6396
       ...                                ...                  ...
        64                          0.7803491              21.2344
      -------------------------------------------------------------
                  HL-Gap            0.1311171 Eh            3.5679 eV

     #   Z          covCN         q      C6AA      α(0)
     1  15 P        2.970    -0.119   165.649    23.122
     2   6 C        3.747    -0.044    21.429     6.603
     3   1 H        0.926     0.042     2.425     2.435
     4   1 H        0.926     0.039     2.458     2.451
     5   6 C        3.770    -0.094    22.321     6.733
     6   1 H        0.925     0.040     2.449     2.447
     7   1 H        0.925     0.039     2.468     2.457
     8   1 H        0.925     0.031     2.571     2.507
     9   6 C        2.916     0.015    27.672     8.626
    10   6 C        3.024    -0.030    28.723     8.791
    11   6 C        2.964    -0.033    28.818     8.805
    12   6 C        2.918    -0.031    28.767     8.795
    13   6 C        2.919    -0.031    28.777     8.797
    14   6 C        2.920    -0.031    28.781     8.798
    15   1 H        0.925     0.035     2.521     2.483
    16   1 H        0.926     0.035     2.513     2.479
    17   1 H        0.926     0.028     2.621     2.532
    18   1 H        0.926     0.027     2.628     2.535
    19   1 H        0.926     0.028     2.621     2.532
    20   6 C        3.747    -0.042    21.400     6.598
    21   1 H        0.926     0.044     2.395     2.420
    22   1 H        0.926     0.038     2.472     2.459
    23   6 C        3.770    -0.097    22.385     6.742
    24   1 H        0.925     0.041     2.434     2.440
    25   1 H        0.925     0.039     2.465     2.455
    26   1 H        0.925     0.032     2.563     2.504

Wiberg/Mayer (AO) data.
largest (>0.10) Wiberg bond orders for each atom

     #   Z sym  total        # sym  WBO       # sym  WBO       # sym  WBO
 ---------------------------------------------------------------------------
     1  15 P    3.389 --     2 C    1.026     9 C    1.026    20 C    1.009
     2   6 C    3.990 --     1 P    1.026     5 C    1.010     4 H    0.956
                             3 H    0.952
     3   1 H    0.998 --     2 C    0.952
     4   1 H    0.998 --     2 C    0.956
     5   6 C    3.996 --     2 C    1.010     7 H    0.984     8 H    0.983
                             6 H    0.981
     6   1 H    0.998 --     5 C    0.981
     7   1 H    0.998 --     5 C    0.984
     8   1 H    0.999 --     5 C    0.983
     9   6 C    3.982 --    11 C    1.400    10 C    1.383     1 P    1.026
                            14 C    0.105
    10   6 C    3.992 --    12 C    1.457     9 C    1.383    15 H    0.962
                            13 C    0.109
    11   6 C    3.993 --    13 C    1.441     9 C    1.400    16 H    0.962
                            12 C    0.106
    12   6 C    3.991 --    10 C    1.457    14 C    1.427    17 H    0.970
                            11 C    0.106
    13   6 C    3.993 --    14 C    1.441    11 C    1.441    18 H    0.970
                            10 C    0.109
    14   6 C    3.985 --    13 C    1.441    12 C    1.427    19 H    0.972
                             9 C    0.105
    15   1 H    0.999 --    10 C    0.962
    16   1 H    0.999 --    11 C    0.962
    17   1 H    0.999 --    12 C    0.970
    18   1 H    0.999 --    13 C    0.970
    19   1 H    0.999 --    14 C    0.972
    20   6 C    3.988 --    23 C    1.012     1 P    1.009    22 H    0.961
                            21 H    0.952
    21   1 H    0.998 --    20 C    0.952
    22   1 H    0.998 --    20 C    0.961
    23   6 C    3.996 --    20 C    1.012    26 H    0.983    24 H    0.982
                            25 H    0.981
    24   1 H    0.998 --    23 C    0.982
    25   1 H    0.998 --    23 C    0.981
    26   1 H    0.999 --    23 C    0.983
 ---------------------------------------------------------------------------

molecular dipole:
                 x           y           z       tot (Debye)
 q only:       -0.060      -0.363       0.041
   full:        0.100      -0.664       0.056       1.714

 projected vibrational frequencies (cm⁻¹)
eigval :       -0.00    -0.00     0.00     0.00     0.00     0.00
eigval :       50.29    83.39   107.37   119.90   173.77   175.77
eigval :      212.94   223.37   243.81   276.19   326.60   367.25
eigval :      372.40   394.54   490.68   585.50   623.09   658.70
eigval :      676.30   691.44   729.40   742.12   767.41   877.48
eigval :      899.66   928.21   933.04   968.94   986.61  1013.93
eigval :     1015.30  1025.65  1065.25  1071.61  1084.58  1115.56
eigval :     1121.28  1181.89  1202.40  1228.53  1234.73  1272.37
eigval :     1278.90  1281.73  1317.90  1407.60  1411.54  1421.79
eigval :     1453.77  1456.93  1464.40  1493.36  1497.20  1506.92
eigval :     1518.76  1576.80  1588.32  2925.23  2933.22  2948.32
eigval :     2950.78  3004.72  3007.27  3032.52  3040.10  3041.66
eigval :     3055.11  3065.30  3067.58  3073.32  3086.02  3091.58

   temp. (K)  partition function   enthalpy   heat capacity  entropy
                                   cal/mol     cal/K/mol   cal/K/mol   J/K/mol
 298.15  VIB  0.420E+04             5971.761     39.993     35.860
         ROT  0.108E+07              888.752      2.981     30.594
         INT  0.455E+10             6860.513     42.974     66.453
         TR   0.207E+28             1481.254      4.968     41.214
         TOT                        8341.7668    47.9423   107.6668   450.4780

       T/K    H(0)-H(T)+PV         H(T)/Eh          T*S/Eh         G(T)/Eh
   ------------------------------------------------------------------------
    298.15    0.132935E-01    0.232722E+00    0.511560E-01    0.181566E+00
   ------------------------------------------------------------------------

         :::::::::::::::::::::::::::::::::::::::::::::::::::::
         ::                  THERMODYNAMIC                  ::
         :::::::::::::::::::::::::::::::::::::::::::::::::::::
         :: total free energy         -31.370680420219 Eh   ::
         ::.................................................::
         :: total energy              -31.552246303310 Eh   ::
         :: zero point energy           0.219428411175 Eh   ::
         :: G(RRHO) w/o ZPVE           -0.037862528084 Eh   ::
         :: G(RRHO) contrib.            0.181565883091 Eh   ::
         :::::::::::::::::::::::::::::::::::::::::::::::::::::

           -------------------------------------------------
          | TOTAL ENERGY              -31.552246303310 Eh   |
          | TOTAL ENTHALPY            -31.319524440540 Eh   |
          | TOTAL FREE ENERGY         -31.370680420219 Eh   |
          | GRADIENT NORM               0.000021687466 Eh/α |
          | HOMO-LUMO GAP               3.567877958665 eV   |
           -------------------------------------------------

 * finished run on 2025/07/14 at 11:36:10.797
