   * xtb version 6.7.0 (08769fc) compiled by 'albert@albert-system' on 2024-03-04

   ID    Z sym.   atoms
    1   15 P      1
    2    6 C      2, 5, 9-14, 20, 23
    3    1 H      3, 4, 6-8, 15-19, 21, 22, 24-26

          program call               : /home/minenky/programs/xtb/xtb-dist/bin/xtb m1_00_PEt2Ph-PBE0-D3-TZ-uniMM_24.xyz --charge 0 --T --ohess extreme --cycles 5000 --acc 0.01 --iterations 5000
          :  Hamiltonian                  GFN2-xTB          :
 * total energy  :   -31.5470790 Eh     change       -0.2131628E-13 Eh
 * total energy  :   -31.5503176 Eh     change       -0.3238624E-02 Eh
 * total energy  :   -31.5509333 Eh     change       -0.6156419E-03 Eh
 * total energy  :   -31.5512328 Eh     change       -0.2995648E-03 Eh
 * total energy  :   -31.5514389 Eh     change       -0.2061049E-03 Eh
 * total energy  :   -31.5516086 Eh     change       -0.1696552E-03 Eh
 * total energy  :   -31.5517453 Eh     change       -0.1367235E-03 Eh
 * total energy  :   -31.5518586 Eh     change       -0.1133155E-03 Eh
 * total energy  :   -31.5519652 Eh     change       -0.1065806E-03 Eh
 * total energy  :   -31.5520673 Eh     change       -0.1020818E-03 Eh
 * total energy  :   -31.5535416 Eh     change       -0.2912789E-05 Eh
 * total energy  :   -31.5535407 Eh     change        0.9843459E-06 Eh
 * total energy  :   -31.5535424 Eh     change       -0.1789856E-05 Eh
 * total energy  :   -31.5535428 Eh     change       -0.3085947E-06 Eh
 * total energy  :   -31.5535430 Eh     change       -0.2227171E-06 Eh
 * total energy  :   -31.5535431 Eh     change       -0.1340236E-06 Eh
 * total energy  :   -31.5535431 Eh     change       -0.2640302E-08 Eh
 * total energy  :   -31.5535432 Eh     change       -0.6545344E-07 Eh
 * total energy  :   -31.5535432 Eh     change       -0.4330063E-07 Eh
   *** GEOMETRY OPTIMIZATION CONVERGED AFTER 36 ITERATIONS ***

 final structure:
================
26
 xtb: 6.7.0 (08769fc)
P            1.79352304110439       -0.22989504337488       -2.98073910551638
C            0.99786450770522        1.46650229416996       -2.85058909773557
H            1.79848474379655        2.20899456405853       -2.85119857189489
H            0.37027814247797        1.64247758681682       -3.72791350733660
C            0.18522841619758        1.61317767957139       -1.56941284916227
H            0.82055778440930        1.45612921501718       -0.70011118191924
H           -0.62163935296241        0.88449567417418       -1.52848045538204
H           -0.24978930925253        2.60961522174288       -1.50476684291138
C            0.80304249712941       -0.89611440612649       -4.37602149932094
C            1.36426212050099       -1.55552209134908       -5.46428982323304
C           -0.58614029132660       -0.84160747224371       -4.27861815950986
C            0.55960630929074       -2.09875273555252       -6.45035986557561
C           -1.38947040614447       -1.38485952310429       -5.26251001487809
C           -0.81826176737204       -2.01076080411894       -6.35797961360447
H            2.43585153906423       -1.64871010225917       -5.55409162282801
H           -1.04250111936557       -0.36738831726997       -3.42143561862488
H            1.01373125926455       -2.59647900114434       -7.29543109806326
H           -2.46477956355811       -1.32393399850952       -5.17313281414990
H           -1.44361606521433       -2.43461101693205       -7.12992590799248
C            3.34740102129721        0.27247633836777       -3.88719265685948
H            3.80010156327834       -0.63673361573329       -4.28844997834495
H            3.09195757538863        0.93234849053933       -4.72188707435452
C            4.34808508206493        0.93374900841462       -2.94769507541178
H            4.59745322807191        0.26031201712471       -2.13006847892936
H            3.94897063011768        1.85084445543254       -2.51920037616572
H            5.26376841403702        1.18122558228685       -3.48237471029689

          :  Hamiltonian                  GFN2-xTB          :
         :: gradient norm              0.000032534718 Eh/a0 ::
         :: HOMO-LUMO gap              3.659716234682 eV    ::
         :: SCC energy               -32.074122798155 Eh    ::
         :: -> dispersion             -0.023367524323 Eh    ::
         :: repulsion energy           0.520579574140 Eh    ::

    * Orbital Energies and Occupations

         #    Occupation            Energy/Eh            Energy/eV
      -------------------------------------------------------------
         1        2.0000           -0.6583509             -17.9146
       ...           ...                  ...                  ...
        18        2.0000           -0.4768141             -12.9748
        19        2.0000           -0.4742151             -12.9041
        20        2.0000           -0.4635381             -12.6135
        21        2.0000           -0.4610194             -12.5450
        22        2.0000           -0.4528894             -12.3237
        23        2.0000           -0.4454204             -12.1205
        24        2.0000           -0.4382875             -11.9264
        25        2.0000           -0.4246328             -11.5548
        26        2.0000           -0.4142874             -11.2733
        27        2.0000           -0.4090157             -11.1299
        28        2.0000           -0.4023697             -10.9490
        29        2.0000           -0.3988876             -10.8543
        30        2.0000           -0.3639460              -9.9035 (HOMO)
        31                         -0.2294539              -6.2438 (LUMO)
        32                         -0.2213228              -6.0225
        33                         -0.1593873              -4.3371
        34                         -0.1523920              -4.1468
        35                         -0.0941482              -2.5619
        36                          0.0024068               0.0655
        37                          0.0604648               1.6453
        38                          0.0818782               2.2280
        39                          0.1143778               3.1124
        40                          0.1162180               3.1625
        41                          0.1305159               3.5515
       ...                                ...                  ...
        64                          0.7730168              21.0349
      -------------------------------------------------------------
                  HL-Gap            0.1344921 Eh            3.6597 eV

     #   Z          covCN         q      C6AA      α(0)
     1  15 P        3.032    -0.097   164.605    23.048
     2   6 C        3.747    -0.050    21.545     6.621
     3   1 H        0.925     0.043     2.408     2.427
     4   1 H        0.925     0.043     2.413     2.429
     5   6 C        3.807    -0.097    22.345     6.729
     6   1 H        0.925     0.041     2.441     2.443
     7   1 H        0.925     0.036     2.498     2.472
     8   1 H        0.925     0.031     2.571     2.508
     9   6 C        2.914     0.006    27.898     8.661
    10   6 C        2.968    -0.033    28.822     8.806
    11   6 C        3.005    -0.032    28.772     8.799
    12   6 C        2.919    -0.030    28.753     8.793
    13   6 C        2.918    -0.030    28.761     8.794
    14   6 C        2.920    -0.031    28.778     8.797
    15   1 H        0.926     0.031     2.575     2.509
    16   1 H        0.926     0.035     2.510     2.477
    17   1 H        0.926     0.028     2.611     2.527
    18   1 H        0.926     0.028     2.610     2.526
    19   1 H        0.926     0.028     2.611     2.527
    20   6 C        3.748    -0.049    21.513     6.616
    21   1 H        0.926     0.042     2.423     2.434
    22   1 H        0.925     0.042     2.416     2.431
    23   6 C        3.816    -0.098    22.348     6.728
    24   1 H        0.925     0.043     2.415     2.430
    25   1 H        0.925     0.036     2.504     2.474
    26   1 H        0.925     0.033     2.539     2.492

Wiberg/Mayer (AO) data.
largest (>0.10) Wiberg bond orders for each atom

     #   Z sym  total        # sym  WBO       # sym  WBO       # sym  WBO
 ---------------------------------------------------------------------------
     1  15 P    3.357 --     9 C    1.023    20 C    1.022     2 C    1.011
     2   6 C    3.996 --     5 C    1.018     1 P    1.011     4 H    0.957
                             3 H    0.955
     3   1 H    0.998 --     2 C    0.955
     4   1 H    0.998 --     2 C    0.957
     5   6 C    3.997 --     2 C    1.018     6 H    0.986     8 H    0.985
                             7 H    0.983
     6   1 H    0.998 --     5 C    0.986
     7   1 H    0.999 --     5 C    0.983
     8   1 H    0.999 --     5 C    0.985
     9   6 C    3.980 --    10 C    1.400    11 C    1.390     1 P    1.023
                            14 C    0.105
    10   6 C    3.992 --    12 C    1.444     9 C    1.400    15 H    0.962
                            13 C    0.107
    11   6 C    3.992 --    13 C    1.454     9 C    1.390    16 H    0.961
                            12 C    0.109
    12   6 C    3.993 --    10 C    1.444    14 C    1.438    17 H    0.970
                            11 C    0.109
    13   6 C    3.992 --    11 C    1.454    14 C    1.430    18 H    0.970
                            10 C    0.107
    14   6 C    3.990 --    12 C    1.438    13 C    1.430    19 H    0.971
                             9 C    0.105
    15   1 H    0.999 --    10 C    0.962
    16   1 H    0.999 --    11 C    0.961
    17   1 H    0.999 --    12 C    0.970
    18   1 H    0.999 --    13 C    0.970
    19   1 H    0.998 --    14 C    0.971
    20   6 C    3.994 --     1 P    1.022    23 C    1.017    21 H    0.955
                            22 H    0.955
    21   1 H    0.998 --    20 C    0.955
    22   1 H    0.998 --    20 C    0.955
    23   6 C    3.996 --    20 C    1.017    24 H    0.985    26 H    0.984
                            25 H    0.981
    24   1 H    0.998 --    23 C    0.985
    25   1 H    0.999 --    23 C    0.981
    26   1 H    0.998 --    23 C    0.984
 ---------------------------------------------------------------------------

molecular dipole:
                 x           y           z       tot (Debye)
 q only:        0.106       0.288      -0.060
   full:        0.065       0.480      -0.381       1.566

 projected vibrational frequencies (cm⁻¹)
eigval :       -0.00    -0.00    -0.00     0.00     0.00     0.00
eigval :      -20.71    67.52    78.38   124.36   130.83   168.44
eigval :      195.06   225.94   230.67   272.34   290.41   331.14
eigval :      360.52   402.15   471.81   586.13   650.51   657.14
eigval :      683.86   696.36   735.94   757.08   775.16   867.41
eigval :      891.94   923.75   930.46   968.13   983.80   994.67
eigval :     1012.41  1018.89  1069.89  1074.83  1086.82  1115.28
eigval :     1124.08  1181.97  1202.63  1226.33  1227.70  1251.83
eigval :     1258.19  1285.02  1316.66  1409.63  1413.72  1421.10
eigval :     1442.25  1446.89  1458.12  1497.07  1499.14  1501.32
eigval :     1503.41  1577.03  1588.91  2929.00  2945.81  2961.00
eigval :     2964.37  3012.29  3014.61  3024.01  3024.78  3032.77
eigval :     3033.58  3067.31  3069.84  3078.11  3086.72  3091.90

   temp. (K)  partition function   enthalpy   heat capacity  entropy
                                   cal/mol     cal/K/mol   cal/K/mol   J/K/mol
 298.15  VIB  0.201E+04             5637.898     38.569     33.664
         ROT  0.126E+07              888.752      2.981     30.902
         INT  0.254E+10             6526.650     41.550     64.566
         TR   0.207E+28             1481.254      4.968     41.214
         TOT                        8007.9042    46.5177   105.7796   442.5819

       T/K    H(0)-H(T)+PV         H(T)/Eh          T*S/Eh         G(T)/Eh
   ------------------------------------------------------------------------
    298.15    0.127614E-01    0.231464E+00    0.502593E-01    0.181204E+00
   ------------------------------------------------------------------------

         :::::::::::::::::::::::::::::::::::::::::::::::::::::
         ::                  THERMODYNAMIC                  ::
         :::::::::::::::::::::::::::::::::::::::::::::::::::::
         :: total free energy         -31.372339017335 Eh   ::
         ::.................................................::
         :: total energy              -31.553543224015 Eh   ::
         :: zero point energy           0.218702107456 Eh   ::
         :: G(RRHO) w/o ZPVE           -0.037497900776 Eh   ::
         :: G(RRHO) contrib.            0.181204206680 Eh   ::
         :::::::::::::::::::::::::::::::::::::::::::::::::::::

           -------------------------------------------------
          | TOTAL ENERGY              -31.553543224015 Eh   |
          | TOTAL ENTHALPY            -31.322079708850 Eh   |
          | TOTAL FREE ENERGY         -31.372339017335 Eh   |
          | GRADIENT NORM               0.000032534662 Eh/α |
          | HOMO-LUMO GAP               3.659716246631 eV   |
           -------------------------------------------------

 * finished run on 2025/07/14 at 11:28:43.179
