   * xtb version 6.7.0 (08769fc) compiled by 'albert@albert-system' on 2024-03-04

   ID    Z sym.   atoms
    1   15 P      1
    2    6 C      2, 5, 9-14, 20, 23
    3    1 H      3, 4, 6-8, 15-19, 21, 22, 24-26

          program call               : /home/minenky/programs/xtb/xtb-dist/bin/xtb m1_00_PEt2Ph-PBE0-D3-TZ-uniMM_57.xyz --charge 0 --T --ohess extreme --cycles 5000 --acc 0.01 --iterations 5000
          :  Hamiltonian                  GFN2-xTB          :
 * total energy  :   -31.5337252 Eh     change       -0.1563194E-12 Eh
 * total energy  :   -31.5451268 Eh     change       -0.1140167E-01 Eh
 * total energy  :   -31.5481314 Eh     change       -0.3004589E-02 Eh
 * total energy  :   -31.5501166 Eh     change       -0.1985223E-02 Eh
 * total energy  :   -31.5511124 Eh     change       -0.9957627E-03 Eh
 * total energy  :   -31.5516124 Eh     change       -0.4999909E-03 Eh
 * total energy  :   -31.5518109 Eh     change       -0.1985452E-03 Eh
 * total energy  :   -31.5519141 Eh     change       -0.1031541E-03 Eh
 * total energy  :   -31.5520276 Eh     change       -0.1134796E-03 Eh
 * total energy  :   -31.5521732 Eh     change       -0.1456183E-03 Eh
 * total energy  :   -31.5559291 Eh     change       -0.2337365E-06 Eh
 * total energy  :   -31.5559292 Eh     change       -0.1605211E-06 Eh
 * total energy  :   -31.5559293 Eh     change       -0.1220498E-06 Eh
 * total energy  :   -31.5559295 Eh     change       -0.1412630E-06 Eh
 * total energy  :   -31.5559296 Eh     change       -0.1563745E-06 Eh
 * total energy  :   -31.5559298 Eh     change       -0.1309317E-06 Eh
 * total energy  :   -31.5559299 Eh     change       -0.8667820E-07 Eh
 * total energy  :   -31.5559299 Eh     change       -0.5869622E-07 Eh
 * total energy  :   -31.5559299 Eh     change       -0.3700085E-07 Eh
   *** GEOMETRY OPTIMIZATION CONVERGED AFTER 65 ITERATIONS ***

 final structure:
================
26
 xtb: 6.7.0 (08769fc)
P            2.13718196032945        0.27045086110264       -3.09761783974969
C            0.89221784972874       -1.05356286087186       -2.65852916659039
H           -0.07520855580772       -0.54661274706039       -2.60620979436958
H            0.84583835514598       -1.73380851507451       -3.51338640062872
C            1.13949090023344       -1.82694431338079       -1.37094340543259
H            1.26455979005492       -1.14621210731683       -0.53046351421744
H            2.02654451995383       -2.45099940098473       -1.44675209131050
H            0.29041397682302       -2.47627817626030       -1.16195464935818
C            2.12798703280669        1.17922024281382       -1.50344691493554
C            3.24279228427762        1.36782730216758       -0.69520011457858
C            0.93056679175360        1.79512420696223       -1.14339326620466
C            3.14768887603752        2.11535591876566        0.46630206583537
C            0.83517428731319        2.53720427885770        0.01734486137675
C            1.94543656884879        2.69473917434198        0.83120353886070
H            4.19432228015444        0.93456184475036       -0.96301287085951
H            0.06705040577251        1.68849647679084       -1.78597173713412
H            4.02108584881254        2.24589534506520        1.08951607576818
H           -0.10385880453321        2.99913345117990        0.28680836978099
H            1.87520542141673        3.27413112928531        1.74010091343078
C            3.72906080028236       -0.68978709077799       -2.95338042881220
H            4.53780201965994        0.03712383879423       -3.07360981811454
H            3.81960684774838       -1.14660045460982       -1.96514052131762
C            3.83990661208198       -1.74210666616490       -4.04934035452415
H            3.69208122901408       -1.28814929946324       -5.02756334268138
H            3.09370759041291       -2.52293243717984       -3.92003214213862
H            4.82447311167807       -2.20717400173411       -4.03140845209423

          :  Hamiltonian                  GFN2-xTB          :
         :: gradient norm              0.000018002668 Eh/a0 ::
         :: HOMO-LUMO gap              3.637318080748 eV    ::
         :: SCC energy               -32.077068561983 Eh    ::
         :: -> dispersion             -0.024362043439 Eh    ::
         :: repulsion energy           0.521138612748 Eh    ::

    * Orbital Energies and Occupations

         #    Occupation            Energy/Eh            Energy/eV
      -------------------------------------------------------------
         1        2.0000           -0.6587520             -17.9256
       ...           ...                  ...                  ...
        18        2.0000           -0.4770487             -12.9812
        19        2.0000           -0.4739949             -12.8981
        20        2.0000           -0.4690196             -12.7627
        21        2.0000           -0.4616349             -12.5617
        22        2.0000           -0.4527112             -12.3189
        23        2.0000           -0.4451238             -12.1124
        24        2.0000           -0.4393736             -11.9560
        25        2.0000           -0.4246950             -11.5565
        26        2.0000           -0.4143523             -11.2751
        27        2.0000           -0.4078367             -11.0978
        28        2.0000           -0.4028003             -10.9608
        29        2.0000           -0.4007044             -10.9037
        30        2.0000           -0.3635313              -9.8922 (HOMO)
        31                         -0.2298623              -6.2549 (LUMO)
        32                         -0.2215288              -6.0281
        33                         -0.1545106              -4.2044
        34                         -0.1498751              -4.0783
        35                         -0.0933336              -2.5397
        36                          0.0107887               0.2936
        37                          0.0439363               1.1956
        38                          0.1058820               2.8812
        39                          0.1122452               3.0543
        40                          0.1165334               3.1710
        41                          0.1319446               3.5904
       ...                                ...                  ...
        64                          0.7998956              21.7663
      -------------------------------------------------------------
                  HL-Gap            0.1336690 Eh            3.6373 eV

     #   Z          covCN         q      C6AA      α(0)
     1  15 P        3.019    -0.113   165.363    23.101
     2   6 C        3.748    -0.044    21.428     6.602
     3   1 H        0.926     0.042     2.424     2.435
     4   1 H        0.926     0.041     2.438     2.442
     5   6 C        3.780    -0.094    22.320     6.730
     6   1 H        0.925     0.037     2.483     2.464
     7   1 H        0.925     0.038     2.479     2.462
     8   1 H        0.925     0.032     2.560     2.502
     9   6 C        2.915     0.010    27.791     8.645
    10   6 C        2.961    -0.034    28.833     8.807
    11   6 C        3.020    -0.030    28.727     8.792
    12   6 C        2.919    -0.031    28.767     8.795
    13   6 C        2.918    -0.030    28.754     8.793
    14   6 C        2.920    -0.031    28.777     8.797
    15   1 H        0.926     0.033     2.549     2.497
    16   1 H        0.925     0.034     2.532     2.489
    17   1 H        0.926     0.028     2.617     2.530
    18   1 H        0.926     0.029     2.604     2.523
    19   1 H        0.926     0.028     2.611     2.527
    20   6 C        3.748    -0.045    21.450     6.606
    21   1 H        0.926     0.041     2.441     2.443
    22   1 H        0.925     0.047     2.362     2.403
    23   6 C        3.818    -0.097    22.332     6.726
    24   1 H        0.925     0.041     2.431     2.438
    25   1 H        0.925     0.037     2.488     2.467
    26   1 H        0.925     0.032     2.556     2.500

Wiberg/Mayer (AO) data.
largest (>0.10) Wiberg bond orders for each atom

     #   Z sym  total        # sym  WBO       # sym  WBO       # sym  WBO
 ---------------------------------------------------------------------------
     1  15 P    3.378 --    20 C    1.027     9 C    1.019     2 C    1.014
     2   6 C    3.994 --     1 P    1.014     5 C    1.012     4 H    0.956
                             3 H    0.954
     3   1 H    0.998 --     2 C    0.954
     4   1 H    0.998 --     2 C    0.956
     5   6 C    3.997 --     2 C    1.012     7 H    0.984     8 H    0.983
                             6 H    0.983
     6   1 H    0.999 --     5 C    0.983
     7   1 H    0.999 --     5 C    0.984
     8   1 H    0.999 --     5 C    0.983
     9   6 C    3.982 --    10 C    1.402    11 C    1.390     1 P    1.019
                            14 C    0.106
    10   6 C    3.993 --    12 C    1.441     9 C    1.402    15 H    0.963
                            13 C    0.107
    11   6 C    3.992 --    13 C    1.457     9 C    1.390    16 H    0.962
                            12 C    0.110
    12   6 C    3.993 --    14 C    1.441    10 C    1.441    17 H    0.970
                            11 C    0.110
    13   6 C    3.992 --    11 C    1.457    14 C    1.428    18 H    0.970
                            10 C    0.107
    14   6 C    3.991 --    12 C    1.441    13 C    1.428    19 H    0.971
                             9 C    0.106
    15   1 H    0.999 --    10 C    0.963
    16   1 H    0.999 --    11 C    0.962
    17   1 H    0.999 --    12 C    0.970
    18   1 H    0.999 --    13 C    0.970
    19   1 H    0.998 --    14 C    0.971
    20   6 C    3.995 --     1 P    1.027    23 C    1.015    21 H    0.956
                            22 H    0.951
    21   1 H    0.998 --    20 C    0.956
    22   1 H    0.998 --    20 C    0.951
    23   6 C    3.996 --    20 C    1.015    26 H    0.985    24 H    0.984
                            25 H    0.984
    24   1 H    0.998 --    23 C    0.984
    25   1 H    0.999 --    23 C    0.984
    26   1 H    0.999 --    23 C    0.985
 ---------------------------------------------------------------------------

molecular dipole:
                 x           y           z       tot (Debye)
 q only:        0.045      -0.330       0.106
   full:        0.103      -0.497       0.427       1.686

 projected vibrational frequencies (cm⁻¹)
eigval :       -0.00    -0.00    -0.00    -0.00     0.00     0.00
eigval :       27.33    70.43    81.71   127.25   129.52   199.80
eigval :      204.30   227.99   261.51   277.18   283.86   356.98
eigval :      363.05   406.36   472.96   585.99   638.35   657.07
eigval :      683.09   704.68   729.48   746.91   791.30   871.10
eigval :      894.42   925.08   931.15   968.60   974.44   998.54
eigval :     1012.45  1021.91  1065.62  1072.95  1085.90  1115.63
eigval :     1123.35  1181.90  1203.35  1225.76  1227.83  1251.15
eigval :     1266.81  1282.36  1316.94  1408.54  1410.74  1421.69
eigval :     1450.99  1455.20  1462.07  1497.27  1501.00  1504.94
eigval :     1508.43  1577.46  1589.09  2938.93  2942.43  2949.32
eigval :     2960.83  3011.43  3013.27  3024.00  3024.74  3034.33
eigval :     3039.06  3058.87  3068.37  3074.75  3087.06  3094.12

   temp. (K)  partition function   enthalpy   heat capacity  entropy
                                   cal/mol     cal/K/mol   cal/K/mol   J/K/mol
 298.15  VIB  0.119E+05             6091.867     39.518     37.056
         ROT  0.113E+07              888.752      2.981     30.681
         INT  0.134E+11             6980.619     42.499     67.737
         TR   0.207E+28             1481.254      4.968     41.214
         TOT                        8461.8731    47.4671   108.9502   455.8476

       T/K    H(0)-H(T)+PV         H(T)/Eh          T*S/Eh         G(T)/Eh
   ------------------------------------------------------------------------
    298.15    0.134849E-01    0.232538E+00    0.517658E-01    0.180772E+00
   ------------------------------------------------------------------------

         :::::::::::::::::::::::::::::::::::::::::::::::::::::
         ::                  THERMODYNAMIC                  ::
         :::::::::::::::::::::::::::::::::::::::::::::::::::::
         :: total free energy         -31.375157541488 Eh   ::
         ::.................................................::
         :: total energy              -31.555929949235 Eh   ::
         :: zero point energy           0.219053306313 Eh   ::
         :: G(RRHO) w/o ZPVE           -0.038280898567 Eh   ::
         :: G(RRHO) contrib.            0.180772407746 Eh   ::
         :::::::::::::::::::::::::::::::::::::::::::::::::::::

           -------------------------------------------------
          | TOTAL ENERGY              -31.555929949235 Eh   |
          | TOTAL ENTHALPY            -31.323391789717 Eh   |
          | TOTAL FREE ENERGY         -31.375157541488 Eh   |
          | GRADIENT NORM               0.000018002567 Eh/α |
          | HOMO-LUMO GAP               3.637318066954 eV   |
           -------------------------------------------------

 * finished run on 2025/07/14 at 11:35:30.263
