   * xtb version 6.7.0 (08769fc) compiled by 'albert@albert-system' on 2024-03-04

   ID    Z sym.   atoms
    1   15 P      1
    2    6 C      2, 5, 9-14, 20, 23
    3    1 H      3, 4, 6-8, 15-19, 21, 22, 24-26

          program call               : /home/minenky/programs/xtb/xtb-dist/bin/xtb m1_00_PEt2Ph-PBE0-D3-TZ-uniMM_23.xyz --charge 0 --T --ohess extreme --cycles 5000 --acc 0.01 --iterations 5000
          :  Hamiltonian                  GFN2-xTB          :
 * total energy  :   -31.5475811 Eh     change        0.0000000E+00 Eh
 * total energy  :   -31.5507175 Eh     change       -0.3136351E-02 Eh
 * total energy  :   -31.5512692 Eh     change       -0.5516692E-03 Eh
 * total energy  :   -31.5515574 Eh     change       -0.2882634E-03 Eh
 * total energy  :   -31.5517706 Eh     change       -0.2131501E-03 Eh
 * total energy  :   -31.5519328 Eh     change       -0.1621974E-03 Eh
 * total energy  :   -31.5520158 Eh     change       -0.8300892E-04 Eh
 * total energy  :   -31.5520491 Eh     change       -0.3327251E-04 Eh
 * total energy  :   -31.5520751 Eh     change       -0.2600228E-04 Eh
 * total energy  :   -31.5520939 Eh     change       -0.1888113E-04 Eh
 * total energy  :   -31.5561089 Eh     change       -0.3744765E-06 Eh
 * total energy  :   -31.5561093 Eh     change       -0.3506269E-06 Eh
 * total energy  :   -31.5561092 Eh     change        0.1208246E-07 Eh
 * total energy  :   -31.5561097 Eh     change       -0.4827667E-06 Eh
 * total energy  :   -31.5561099 Eh     change       -0.1716143E-06 Eh
 * total energy  :   -31.5561100 Eh     change       -0.6470863E-07 Eh
 * total energy  :   -31.5561100 Eh     change       -0.5992771E-07 Eh
 * total energy  :   -31.5561100 Eh     change        0.2216389E-08 Eh
 * total energy  :   -31.5561100 Eh     change       -0.2660493E-07 Eh
   *** GEOMETRY OPTIMIZATION CONVERGED AFTER 98 ITERATIONS ***

 final structure:
================
26
 xtb: 6.7.0 (08769fc)
P            1.83889468420237       -0.14168555352013       -3.31103094255793
C            1.41943607276941       -1.74023695704789       -2.43950339372977
H            2.31340861852732       -2.36186249271529       -2.34029045527275
H            1.08769062039366       -1.46351229761934       -1.43432914561348
C            0.31251153643753       -2.50177076477670       -3.15600660568141
H            0.63880339344900       -2.82423382893712       -4.14250877466737
H           -0.56543871064166       -1.87026074839490       -3.27678532988775
H            0.02626917710741       -3.38410983003493       -2.58569881283245
C            3.21783814100338        0.38589882838393       -2.21008403025024
C            3.10043480429800        1.63788838365433       -1.61665885874063
C            4.34549921992345       -0.38179861732716       -1.94225097450636
C            4.08512889282892        2.11542997636701       -0.77048742125262
C            5.33123800651109        0.09543462962526       -1.09825071397920
C            5.20399867319294        1.34324838814545       -0.51011134437890
H            2.22497546790966        2.23632429659757       -1.82820386256038
H            4.46503548251727       -1.35662684244992       -2.39332214309578
H            3.98146390139141        3.08996649017259       -0.31549068660912
H            6.20478162550167       -0.50893116193800       -0.89779691729454
H            5.97711445876914        1.71163705932726        0.14841138972620
C            2.82153056586705       -0.83656952957829       -4.73845908223649
H            3.47083283913551       -1.64891570302395       -4.40106097508681
H            2.09780688887083       -1.25366572813907       -5.44447391086871
C            3.63316436354104        0.25420387203995       -5.42345174728208
H            4.36986194394595        0.67052684281993       -4.73809273897537
H            2.98160285325582        1.06185273355876       -5.75169025254497
H            4.15500547929089       -0.14323444518917       -6.29260426982080

          :  Hamiltonian                  GFN2-xTB          :
         :: gradient norm              0.000025158695 Eh/a0 ::
         :: HOMO-LUMO gap              3.638551109087 eV    ::
         :: SCC energy               -32.076717035465 Eh    ::
         :: -> dispersion             -0.023678671318 Eh    ::
         :: repulsion energy           0.520606990512 Eh    ::

    * Orbital Energies and Occupations

         #    Occupation            Energy/Eh            Energy/eV
      -------------------------------------------------------------
         1        2.0000           -0.6578538             -17.9011
       ...           ...                  ...                  ...
        18        2.0000           -0.4774375             -12.9917
        19        2.0000           -0.4745289             -12.9126
        20        2.0000           -0.4629376             -12.5972
        21        2.0000           -0.4620729             -12.5736
        22        2.0000           -0.4534667             -12.3395
        23        2.0000           -0.4448886             -12.1060
        24        2.0000           -0.4376154             -11.9081
        25        2.0000           -0.4232455             -11.5171
        26        2.0000           -0.4184250             -11.3859
        27        2.0000           -0.4045860             -11.0093
        28        2.0000           -0.4044253             -11.0050
        29        2.0000           -0.3968098             -10.7977
        30        2.0000           -0.3669924              -9.9864 (HOMO)
        31                         -0.2332781              -6.3478 (LUMO)
        32                         -0.2229835              -6.0677
        33                         -0.1564153              -4.2563
        34                         -0.1498173              -4.0767
        35                         -0.0930230              -2.5313
        36                          0.0046460               0.1264
        37                          0.0553222               1.5054
        38                          0.0889640               2.4208
        39                          0.0955180               2.5992
        40                          0.1356331               3.6908
        41                          0.1377660               3.7488
       ...                                ...                  ...
        64                          0.7863480              21.3976
      -------------------------------------------------------------
                  HL-Gap            0.1337143 Eh            3.6386 eV

     #   Z          covCN         q      C6AA      α(0)
     1  15 P        3.046    -0.116   165.503    23.111
     2   6 C        3.748    -0.046    21.472     6.609
     3   1 H        0.925     0.043     2.413     2.429
     4   1 H        0.926     0.038     2.469     2.457
     5   6 C        3.812    -0.098    22.355     6.730
     6   1 H        0.925     0.037     2.493     2.469
     7   1 H        0.925     0.042     2.423     2.434
     8   1 H        0.925     0.033     2.538     2.491
     9   6 C        2.916     0.008    27.844     8.653
    10   6 C        3.016    -0.030    28.736     8.793
    11   6 C        2.960    -0.028    28.705     8.788
    12   6 C        2.918    -0.030    28.741     8.791
    13   6 C        2.919    -0.031    28.780     8.797
    14   6 C        2.920    -0.029    28.731     8.790
    15   1 H        0.925     0.040     2.454     2.450
    16   1 H        0.926     0.032     2.559     2.502
    17   1 H        0.926     0.030     2.580     2.512
    18   1 H        0.926     0.028     2.611     2.527
    19   1 H        0.926     0.029     2.596     2.519
    20   6 C        3.748    -0.045    21.446     6.605
    21   1 H        0.925     0.042     2.425     2.435
    22   1 H        0.926     0.039     2.464     2.455
    23   6 C        3.820    -0.096    22.314     6.722
    24   1 H        0.925     0.035     2.510     2.477
    25   1 H        0.925     0.041     2.435     2.440
    26   1 H        0.925     0.032     2.556     2.500

Wiberg/Mayer (AO) data.
largest (>0.10) Wiberg bond orders for each atom

     #   Z sym  total        # sym  WBO       # sym  WBO       # sym  WBO
 ---------------------------------------------------------------------------
     1  15 P    3.345 --    20 C    1.027     2 C    1.022     9 C    1.006
     2   6 C    3.995 --     1 P    1.022     5 C    1.016     4 H    0.959
                             3 H    0.951
     3   1 H    0.998 --     2 C    0.951
     4   1 H    0.998 --     2 C    0.959
     5   6 C    3.996 --     2 C    1.016     6 H    0.985     7 H    0.985
                             8 H    0.984
     6   1 H    0.999 --     5 C    0.985
     7   1 H    0.998 --     5 C    0.985
     8   1 H    0.998 --     5 C    0.984
     9   6 C    3.983 --    10 C    1.408    11 C    1.400     1 P    1.006
                            14 C    0.108
    10   6 C    3.991 --    12 C    1.443     9 C    1.408    15 H    0.964
                            13 C    0.108
    11   6 C    3.992 --    13 C    1.450     9 C    1.400    16 H    0.961
                            12 C    0.111
    12   6 C    3.992 --    10 C    1.443    14 C    1.441    17 H    0.970
                            11 C    0.111
    13   6 C    3.993 --    11 C    1.450    14 C    1.432    18 H    0.970
                            10 C    0.108
    14   6 C    3.989 --    12 C    1.441    13 C    1.432    19 H    0.971
                             9 C    0.108
    15   1 H    0.998 --    10 C    0.964
    16   1 H    0.999 --    11 C    0.961
    17   1 H    0.999 --    12 C    0.970
    18   1 H    0.999 --    13 C    0.970
    19   1 H    0.998 --    14 C    0.971
    20   6 C    3.993 --     1 P    1.027    23 C    1.016    22 H    0.958
                            21 H    0.950
    21   1 H    0.998 --    20 C    0.950
    22   1 H    0.998 --    20 C    0.958
    23   6 C    3.997 --    20 C    1.016    26 H    0.985    25 H    0.984
                            24 H    0.984
    24   1 H    0.999 --    23 C    0.984
    25   1 H    0.998 --    23 C    0.984
    26   1 H    0.999 --    23 C    0.985
 ---------------------------------------------------------------------------

molecular dipole:
                 x           y           z       tot (Debye)
 q only:        0.121      -0.223      -0.027
   full:        0.427      -0.478       0.067       1.638

 projected vibrational frequencies (cm⁻¹)
eigval :       -0.00    -0.00    -0.00     0.00     0.00     0.00
eigval :       21.39    52.18    71.74    94.90   142.00   166.76
eigval :      203.53   215.64   224.56   266.08   312.44   329.07
eigval :      363.36   426.05   450.33   586.08   655.58   660.46
eigval :      686.30   701.65   739.07   754.48   777.82   874.79
eigval :      898.94   926.63   932.74   968.78   974.89   997.31
eigval :     1013.15  1016.89  1071.34  1076.67  1083.13  1117.44
eigval :     1121.35  1181.65  1198.88  1220.64  1225.85  1250.24
eigval :     1255.41  1278.30  1315.52  1409.33  1411.23  1423.38
eigval :     1445.60  1450.43  1458.49  1497.35  1498.54  1501.88
eigval :     1502.29  1579.84  1589.70  2929.82  2935.41  2946.96
eigval :     2950.24  3013.43  3014.12  3019.91  3026.71  3029.32
eigval :     3033.61  3063.17  3063.97  3071.85  3077.41  3087.87

   temp. (K)  partition function   enthalpy   heat capacity  entropy
                                   cal/mol     cal/K/mol   cal/K/mol   J/K/mol
 298.15  VIB  0.316E+05             6238.023     39.241     38.680
         ROT  0.122E+07              888.752      2.981     30.823
         INT  0.385E+11             7126.775     42.221     69.503
         TR   0.207E+28             1481.254      4.968     41.214
         TOT                        8608.0291    47.1896   110.7169   463.2396

       T/K    H(0)-H(T)+PV         H(T)/Eh          T*S/Eh         G(T)/Eh
   ------------------------------------------------------------------------
    298.15    0.137178E-01    0.232271E+00    0.526052E-01    0.179666E+00
   ------------------------------------------------------------------------

         :::::::::::::::::::::::::::::::::::::::::::::::::::::
         ::                  THERMODYNAMIC                  ::
         :::::::::::::::::::::::::::::::::::::::::::::::::::::
         :: total free energy         -31.376444066062 Eh   ::
         ::.................................................::
         :: total energy              -31.556110044953 Eh   ::
         :: zero point energy           0.218553389062 Eh   ::
         :: G(RRHO) w/o ZPVE           -0.038887410171 Eh   ::
         :: G(RRHO) contrib.            0.179665978890 Eh   ::
         :::::::::::::::::::::::::::::::::::::::::::::::::::::

           -------------------------------------------------
          | TOTAL ENERGY              -31.556110044953 Eh   |
          | TOTAL ENTHALPY            -31.323838888270 Eh   |
          | TOTAL FREE ENERGY         -31.376444066062 Eh   |
          | GRADIENT NORM               0.000025158438 Eh/α |
          | HOMO-LUMO GAP               3.638551182116 eV   |
           -------------------------------------------------

 * finished run on 2025/07/14 at 11:28:36.909
