   * xtb version 6.7.0 (08769fc) compiled by 'albert@albert-system' on 2024-03-04

   ID    Z sym.   atoms
    1   15 P      1
    2    6 C      2, 5, 9-14, 20, 23
    3    1 H      3, 4, 6-8, 15-19, 21, 22, 24-26

          program call               : /home/minenky/programs/xtb/xtb-dist/bin/xtb m1_00_PEt2Ph-PBE0-D3-TZ-uniMM_26.xyz --charge 0 --T --ohess extreme --cycles 5000 --acc 0.01 --iterations 5000
          :  Hamiltonian                  GFN2-xTB          :
 * total energy  :   -31.5455280 Eh     change       -0.2486900E-12 Eh
 * total energy  :   -31.5481579 Eh     change       -0.2629881E-02 Eh
 * total energy  :   -31.5487996 Eh     change       -0.6416980E-03 Eh
 * total energy  :   -31.5491836 Eh     change       -0.3840507E-03 Eh
 * total energy  :   -31.5496656 Eh     change       -0.4819579E-03 Eh
 * total energy  :   -31.5502275 Eh     change       -0.5619097E-03 Eh
 * total energy  :   -31.5509164 Eh     change       -0.6889214E-03 Eh
 * total energy  :   -31.5516452 Eh     change       -0.7287978E-03 Eh
 * total energy  :   -31.5522375 Eh     change       -0.5923283E-03 Eh
 * total energy  :   -31.5524677 Eh     change       -0.2302118E-03 Eh
 * total energy  :   -31.5559289 Eh     change       -0.9706176E-07 Eh
 * total energy  :   -31.5559290 Eh     change       -0.9549091E-07 Eh
 * total energy  :   -31.5559291 Eh     change       -0.1036414E-06 Eh
 * total energy  :   -31.5559292 Eh     change       -0.9461894E-07 Eh
 * total energy  :   -31.5559293 Eh     change       -0.8876484E-07 Eh
 * total energy  :   -31.5559294 Eh     change       -0.7293148E-07 Eh
 * total energy  :   -31.5559295 Eh     change       -0.6333812E-07 Eh
 * total energy  :   -31.5559295 Eh     change       -0.5072183E-07 Eh
 * total energy  :   -31.5559295 Eh     change       -0.4527188E-09 Eh
   *** GEOMETRY OPTIMIZATION CONVERGED AFTER 68 ITERATIONS ***

 final structure:
================
26
 xtb: 6.7.0 (08769fc)
P            1.37843577998281       -0.49754511299241       -2.59042532265890
C            2.60336955231728       -1.84083656985080       -3.00503352940573
H            3.62822222409217       -1.47104158328909       -2.92496512042409
H            2.46040432186790       -2.62763760362534       -2.25842614555782
C            2.34173737389855       -2.41725663227087       -4.39070391860345
H            2.54097118437087       -1.68051680775973       -5.16578496162661
H            1.30414791256588       -2.73384771072031       -4.48018014064102
H            2.98122156070543       -3.28028072593076       -4.57024142086057
C            2.13219154514516        0.21211465719437       -1.07529839201009
C            1.62025987300828        1.43234520012875       -0.63739331561364
C            3.09595409706114       -0.42200100273352       -0.30029034660232
C            2.09279092874925        2.02747399786731        0.51569515622567
C            3.56643138782274        0.17312757063464        0.85791085213049
C            3.07472263839112        1.40040221740407        1.26567203227145
H            0.84112175258365        1.91534985370164       -1.21151152110244
H            3.48838250541125       -1.38428987642598       -0.59158503960757
H            1.69211402959775        2.97890263374196        0.83508598343530
H            4.32257767856278       -0.32786727729086        1.44570942969813
H            3.44732433432688        1.86239033380074        2.16814490438817
C            1.89996412087948        0.83243577743005       -3.79666697836083
H            1.57299349467218        0.50172924649422       -4.78630611974334
H            1.30235497631389        1.71289884681693       -3.54504718749771
C            3.37704074672206        1.19992089704038       -3.81529104642220
H            3.98470839702860        0.38279373019286       -4.19621241080149
H            3.72372908951785        1.45350113624730       -2.81481188852089
H            3.53420849440436        2.06291980419464       -4.46086955208775

          :  Hamiltonian                  GFN2-xTB          :
         :: gradient norm              0.000017292924 Eh/a0 ::
         :: HOMO-LUMO gap              3.637438843610 eV    ::
         :: SCC energy               -32.077067903484 Eh    ::
         :: -> dispersion             -0.024360183026 Eh    ::
         :: repulsion energy           0.521138393049 Eh    ::

    * Orbital Energies and Occupations

         #    Occupation            Energy/Eh            Energy/eV
      -------------------------------------------------------------
         1        2.0000           -0.6587502             -17.9255
       ...           ...                  ...                  ...
        18        2.0000           -0.4770520             -12.9812
        19        2.0000           -0.4740011             -12.8982
        20        2.0000           -0.4690134             -12.7625
        21        2.0000           -0.4616345             -12.5617
        22        2.0000           -0.4527127             -12.3189
        23        2.0000           -0.4451261             -12.1125
        24        2.0000           -0.4393560             -11.9555
        25        2.0000           -0.4246890             -11.5564
        26        2.0000           -0.4143682             -11.2755
        27        2.0000           -0.4078252             -11.0975
        28        2.0000           -0.4028053             -10.9609
        29        2.0000           -0.4006947             -10.9035
        30        2.0000           -0.3635395              -9.8924 (HOMO)
        31                         -0.2298661              -6.2550 (LUMO)
        32                         -0.2215312              -6.0282
        33                         -0.1544809              -4.2036
        34                         -0.1498896              -4.0787
        35                         -0.0933309              -2.5397
        36                          0.0106670               0.2903
        37                          0.0440393               1.1984
        38                          0.1060153               2.8848
        39                          0.1121531               3.0518
        40                          0.1165086               3.1704
        41                          0.1319702               3.5911
       ...                                ...                  ...
        64                          0.7998050              21.7638
      -------------------------------------------------------------
                  HL-Gap            0.1336734 Eh            3.6374 eV

     #   Z          covCN         q      C6AA      α(0)
     1  15 P        3.019    -0.113   165.364    23.101
     2   6 C        3.748    -0.045    21.450     6.606
     3   1 H        0.925     0.047     2.362     2.403
     4   1 H        0.926     0.041     2.441     2.443
     5   6 C        3.818    -0.097    22.332     6.726
     6   1 H        0.925     0.037     2.488     2.467
     7   1 H        0.925     0.041     2.431     2.438
     8   1 H        0.925     0.032     2.556     2.500
     9   6 C        2.915     0.010    27.791     8.645
    10   6 C        3.021    -0.030    28.727     8.792
    11   6 C        2.961    -0.034    28.833     8.807
    12   6 C        2.918    -0.030    28.754     8.793
    13   6 C        2.919    -0.031    28.767     8.795
    14   6 C        2.920    -0.031    28.777     8.797
    15   1 H        0.925     0.034     2.532     2.489
    16   1 H        0.926     0.033     2.549     2.497
    17   1 H        0.926     0.029     2.604     2.523
    18   1 H        0.926     0.028     2.617     2.530
    19   1 H        0.926     0.028     2.611     2.527
    20   6 C        3.748    -0.044    21.428     6.602
    21   1 H        0.926     0.041     2.439     2.442
    22   1 H        0.926     0.042     2.424     2.435
    23   6 C        3.780    -0.094    22.320     6.730
    24   1 H        0.925     0.038     2.479     2.462
    25   1 H        0.925     0.037     2.483     2.464
    26   1 H        0.925     0.032     2.560     2.502

Wiberg/Mayer (AO) data.
largest (>0.10) Wiberg bond orders for each atom

     #   Z sym  total        # sym  WBO       # sym  WBO       # sym  WBO
 ---------------------------------------------------------------------------
     1  15 P    3.378 --     2 C    1.027     9 C    1.019    20 C    1.014
     2   6 C    3.995 --     1 P    1.027     5 C    1.015     4 H    0.956
                             3 H    0.951
     3   1 H    0.998 --     2 C    0.951
     4   1 H    0.998 --     2 C    0.956
     5   6 C    3.996 --     2 C    1.015     8 H    0.985     7 H    0.984
                             6 H    0.984
     6   1 H    0.999 --     5 C    0.984
     7   1 H    0.998 --     5 C    0.984
     8   1 H    0.999 --     5 C    0.985
     9   6 C    3.982 --    11 C    1.402    10 C    1.390     1 P    1.019
                            14 C    0.106
    10   6 C    3.992 --    12 C    1.457     9 C    1.390    15 H    0.962
                            13 C    0.110
    11   6 C    3.993 --    13 C    1.441     9 C    1.402    16 H    0.963
                            12 C    0.107
    12   6 C    3.992 --    10 C    1.457    14 C    1.428    17 H    0.970
                            11 C    0.107
    13   6 C    3.993 --    14 C    1.441    11 C    1.441    18 H    0.970
                            10 C    0.110
    14   6 C    3.991 --    13 C    1.441    12 C    1.428    19 H    0.971
                             9 C    0.106
    15   1 H    0.999 --    10 C    0.962
    16   1 H    0.999 --    11 C    0.963
    17   1 H    0.999 --    12 C    0.970
    18   1 H    0.999 --    13 C    0.970
    19   1 H    0.998 --    14 C    0.971
    20   6 C    3.994 --     1 P    1.014    23 C    1.012    21 H    0.956
                            22 H    0.954
    21   1 H    0.998 --    20 C    0.956
    22   1 H    0.998 --    20 C    0.954
    23   6 C    3.997 --    20 C    1.012    24 H    0.984    26 H    0.983
                            25 H    0.983
    24   1 H    0.999 --    23 C    0.984
    25   1 H    0.999 --    23 C    0.983
    26   1 H    0.999 --    23 C    0.983
 ---------------------------------------------------------------------------

molecular dipole:
                 x           y           z       tot (Debye)
 q only:        0.267       0.012      -0.225
   full:        0.620       0.107      -0.208       1.686

 projected vibrational frequencies (cm⁻¹)
eigval :       -0.00     0.00     0.00     0.00     0.00     0.00
eigval :       27.33    70.18    81.43   127.25   129.49   199.72
eigval :      204.23   227.99   261.48   277.18   283.91   356.92
eigval :      363.04   406.40   472.93   585.96   638.35   657.08
eigval :      683.20   704.69   729.43   746.85   791.31   871.09
eigval :      894.43   925.07   931.14   968.62   974.40   998.55
eigval :     1012.40  1021.87  1065.61  1072.93  1085.87  1115.66
eigval :     1123.34  1181.89  1203.33  1225.73  1227.85  1251.11
eigval :     1266.78  1282.33  1316.95  1408.56  1410.71  1421.69
eigval :     1450.88  1455.04  1462.19  1497.31  1501.04  1504.88
eigval :     1508.49  1577.48  1589.08  2939.01  2942.42  2949.39
eigval :     2960.72  3011.43  3013.23  3023.96  3024.84  3034.32
eigval :     3039.01  3058.78  3068.34  3074.77  3087.02  3094.13

   temp. (K)  partition function   enthalpy   heat capacity  entropy
                                   cal/mol     cal/K/mol   cal/K/mol   J/K/mol
 298.15  VIB  0.119E+05             6092.764     39.515     37.067
         ROT  0.113E+07              888.752      2.981     30.681
         INT  0.135E+11             6981.516     42.496     67.748
         TR   0.207E+28             1481.254      4.968     41.214
         TOT                        8462.7699    47.4644   108.9617   455.8958

       T/K    H(0)-H(T)+PV         H(T)/Eh          T*S/Eh         G(T)/Eh
   ------------------------------------------------------------------------
    298.15    0.134863E-01    0.232537E+00    0.517712E-01    0.180765E+00
   ------------------------------------------------------------------------

         :::::::::::::::::::::::::::::::::::::::::::::::::::::
         ::                  THERMODYNAMIC                  ::
         :::::::::::::::::::::::::::::::::::::::::::::::::::::
         :: total free energy         -31.375164093000 Eh   ::
         ::.................................................::
         :: total energy              -31.555929510435 Eh   ::
         :: zero point energy           0.219050356119 Eh   ::
         :: G(RRHO) w/o ZPVE           -0.038284938684 Eh   ::
         :: G(RRHO) contrib.            0.180765417435 Eh   ::
         :::::::::::::::::::::::::::::::::::::::::::::::::::::

           -------------------------------------------------
          | TOTAL ENERGY              -31.555929510435 Eh   |
          | TOTAL ENTHALPY            -31.323392872009 Eh   |
          | TOTAL FREE ENERGY         -31.375164093000 Eh   |
          | GRADIENT NORM               0.000017292864 Eh/α |
          | HOMO-LUMO GAP               3.637438893407 eV   |
           -------------------------------------------------

 * finished run on 2025/07/14 at 11:28:57.633
