   * xtb version 6.7.0 (08769fc) compiled by 'albert@albert-system' on 2024-03-04

   ID    Z sym.   atoms
    1   15 P      1
    2    6 C      2, 5, 9-14, 20, 23
    3    1 H      3, 4, 6-8, 15-19, 21, 22, 24-26

          program call               : /home/minenky/programs/xtb/xtb-dist/bin/xtb m1_00_PEt2Ph-PBE0-D3-TZ-uniMM_71.xyz --charge 0 --T --ohess extreme --cycles 5000 --acc 0.01 --iterations 5000
          :  Hamiltonian                  GFN2-xTB          :
 * total energy  :   -31.5309162 Eh     change       -0.2131628E-13 Eh
 * total energy  :   -31.5456699 Eh     change       -0.1475370E-01 Eh
 * total energy  :   -31.5491947 Eh     change       -0.3524826E-02 Eh
 * total energy  :   -31.5511755 Eh     change       -0.1980788E-02 Eh
 * total energy  :   -31.5520554 Eh     change       -0.8798387E-03 Eh
 * total energy  :   -31.5525094 Eh     change       -0.4540589E-03 Eh
 * total energy  :   -31.5528298 Eh     change       -0.3203937E-03 Eh
 * total energy  :   -31.5530808 Eh     change       -0.2509440E-03 Eh
 * total energy  :   -31.5532669 Eh     change       -0.1861065E-03 Eh
 * total energy  :   -31.5534155 Eh     change       -0.1486514E-03 Eh
 * total energy  :   -31.5559299 Eh     change       -0.1475025E-06 Eh
 * total energy  :   -31.5559300 Eh     change       -0.1184191E-06 Eh
 * total energy  :   -31.5559300 Eh     change        0.9744156E-08 Eh
 * total energy  :   -31.5559300 Eh     change       -0.7182523E-07 Eh
 * total energy  :   -31.5559300 Eh     change        0.4062972E-08 Eh
 * total energy  :   -31.5559301 Eh     change       -0.6142320E-07 Eh
 * total energy  :   -31.5559301 Eh     change       -0.5024230E-07 Eh
 * total energy  :   -31.5559302 Eh     change       -0.5234598E-07 Eh
 * total energy  :   -31.5559302 Eh     change       -0.4890600E-07 Eh
   *** GEOMETRY OPTIMIZATION CONVERGED AFTER 63 ITERATIONS ***

 final structure:
================
26
 xtb: 6.7.0 (08769fc)
P            1.77505057060377       -0.13179149120476       -3.32076506595852
C            0.78180261762276       -0.16827275864910       -4.89848591984897
H           -0.10241856487634        0.46803824975950       -4.81617966634171
H            1.43043452578788        0.24058232634934       -5.67888630305886
C            0.39195702274925       -1.59265037252512       -5.27255394080881
H           -0.31012223910172       -2.00872616688454       -4.55340003284959
H            1.27220900252848       -2.23242327771491       -5.29877911502130
H           -0.07694303461522       -1.61259921366200       -6.25527074590601
C            1.79152181160041        1.66663820308688       -2.95654498452473
C            1.50522412008963        2.66253862682319       -3.88275804909072
C            2.21481814932799        2.04165498446103       -1.68258441837679
C            1.59651951670293        3.99745754784733       -3.52699276789714
C            2.30165543637345        3.37322202946653       -1.32692683179031
C            1.98582851998121        4.35787610323249       -2.24918609748964
H            1.20894254307386        2.40747552865515       -4.88874906529730
H            2.47917446736847        1.27547868200303       -0.96634041217606
H            1.36208773216217        4.76076296975915       -4.25545854743652
H            2.62146572009453        3.64602789731525       -0.33139642617892
H            2.05210246273507        5.40057680908891       -1.97513862659876
C            0.47420037071618       -0.64500783369592       -2.07973581335792
H            0.29910285299894       -1.71310375667382       -2.23525725130005
H            0.94325989615691       -0.54230272770268       -1.09734782301801
C           -0.83975826982731        0.12305610887356       -2.10668421756472
H           -1.39467745398938       -0.07146982582972       -3.02116271663284
H           -0.66158835998592        1.19440280632986       -2.02983196212085
H           -1.46217641627810       -0.18146844850760       -1.26638619935559

          :  Hamiltonian                  GFN2-xTB          :
         :: gradient norm              0.000024344222 Eh/a0 ::
         :: HOMO-LUMO gap              3.637227915659 eV    ::
         :: SCC energy               -32.077068701324 Eh    ::
         :: -> dispersion             -0.024362235996 Eh    ::
         :: repulsion energy           0.521138456276 Eh    ::

    * Orbital Energies and Occupations

         #    Occupation            Energy/Eh            Energy/eV
      -------------------------------------------------------------
         1        2.0000           -0.6587526             -17.9256
       ...           ...                  ...                  ...
        18        2.0000           -0.4770456             -12.9811
        19        2.0000           -0.4739893             -12.8979
        20        2.0000           -0.4690236             -12.7628
        21        2.0000           -0.4616383             -12.5618
        22        2.0000           -0.4527094             -12.3188
        23        2.0000           -0.4451487             -12.1131
        24        2.0000           -0.4393524             -11.9554
        25        2.0000           -0.4247032             -11.5568
        26        2.0000           -0.4143420             -11.2748
        27        2.0000           -0.4078495             -11.0981
        28        2.0000           -0.4027962             -10.9606
        29        2.0000           -0.4007070             -10.9038
        30        2.0000           -0.3635232              -9.8920 (HOMO)
        31                         -0.2298576              -6.2547 (LUMO)
        32                         -0.2215262              -6.0280
        33                         -0.1545208              -4.2047
        34                         -0.1498686              -4.0781
        35                         -0.0933323              -2.5397
        36                          0.0108222               0.2945
        37                          0.0439075               1.1948
        38                          0.1057974               2.8789
        39                          0.1122032               3.0532
        40                          0.1165506               3.1715
        41                          0.1319237               3.5898
       ...                                ...                  ...
        64                          0.7997866              21.7633
      -------------------------------------------------------------
                  HL-Gap            0.1336657 Eh            3.6372 eV

     #   Z          covCN         q      C6AA      α(0)
     1  15 P        3.019    -0.113   165.359    23.101
     2   6 C        3.748    -0.045    21.450     6.606
     3   1 H        0.925     0.047     2.362     2.403
     4   1 H        0.926     0.041     2.441     2.443
     5   6 C        3.818    -0.097    22.333     6.726
     6   1 H        0.925     0.037     2.488     2.467
     7   1 H        0.925     0.041     2.431     2.438
     8   1 H        0.925     0.032     2.556     2.500
     9   6 C        2.915     0.010    27.791     8.645
    10   6 C        2.961    -0.034    28.833     8.807
    11   6 C        3.020    -0.030    28.728     8.792
    12   6 C        2.919    -0.031    28.767     8.795
    13   6 C        2.918    -0.030    28.754     8.793
    14   6 C        2.920    -0.031    28.777     8.797
    15   1 H        0.926     0.033     2.550     2.497
    16   1 H        0.925     0.034     2.533     2.489
    17   1 H        0.926     0.028     2.617     2.530
    18   1 H        0.926     0.029     2.604     2.524
    19   1 H        0.926     0.028     2.611     2.527
    20   6 C        3.748    -0.044    21.428     6.602
    21   1 H        0.926     0.041     2.438     2.442
    22   1 H        0.926     0.042     2.424     2.435
    23   6 C        3.780    -0.094    22.320     6.730
    24   1 H        0.925     0.038     2.479     2.462
    25   1 H        0.925     0.037     2.483     2.464
    26   1 H        0.925     0.032     2.560     2.502

Wiberg/Mayer (AO) data.
largest (>0.10) Wiberg bond orders for each atom

     #   Z sym  total        # sym  WBO       # sym  WBO       # sym  WBO
 ---------------------------------------------------------------------------
     1  15 P    3.378 --     2 C    1.027     9 C    1.019    20 C    1.014
     2   6 C    3.995 --     1 P    1.027     5 C    1.015     4 H    0.956
                             3 H    0.951
     3   1 H    0.998 --     2 C    0.951
     4   1 H    0.998 --     2 C    0.956
     5   6 C    3.996 --     2 C    1.015     8 H    0.985     7 H    0.984
                             6 H    0.984
     6   1 H    0.999 --     5 C    0.984
     7   1 H    0.998 --     5 C    0.984
     8   1 H    0.999 --     5 C    0.985
     9   6 C    3.982 --    10 C    1.402    11 C    1.390     1 P    1.019
                            14 C    0.106
    10   6 C    3.993 --    12 C    1.441     9 C    1.402    15 H    0.963
                            13 C    0.107
    11   6 C    3.992 --    13 C    1.457     9 C    1.390    16 H    0.962
                            12 C    0.110
    12   6 C    3.993 --    14 C    1.441    10 C    1.441    17 H    0.970
                            11 C    0.110
    13   6 C    3.992 --    11 C    1.457    14 C    1.428    18 H    0.970
                            10 C    0.107
    14   6 C    3.991 --    12 C    1.441    13 C    1.428    19 H    0.971
                             9 C    0.106
    15   1 H    0.999 --    10 C    0.963
    16   1 H    0.999 --    11 C    0.962
    17   1 H    0.999 --    12 C    0.970
    18   1 H    0.999 --    13 C    0.970
    19   1 H    0.998 --    14 C    0.971
    20   6 C    3.994 --     1 P    1.014    23 C    1.012    21 H    0.956
                            22 H    0.954
    21   1 H    0.998 --    20 C    0.956
    22   1 H    0.998 --    20 C    0.954
    23   6 C    3.997 --    20 C    1.012    24 H    0.984    26 H    0.983
                            25 H    0.983
    24   1 H    0.999 --    23 C    0.984
    25   1 H    0.999 --    23 C    0.983
    26   1 H    0.999 --    23 C    0.983
 ---------------------------------------------------------------------------

molecular dipole:
                 x           y           z       tot (Debye)
 q only:       -0.342      -0.062      -0.040
   full:       -0.647       0.141      -0.042       1.685

 projected vibrational frequencies (cm⁻¹)
eigval :       -0.00    -0.00    -0.00     0.00     0.00     0.00
eigval :       27.34    70.32    81.50   127.31   129.55   199.84
eigval :      204.27   228.07   261.55   277.20   283.88   356.98
eigval :      363.06   406.23   473.01   585.95   638.31   657.07
eigval :      683.15   704.56   729.48   746.83   791.30   871.10
eigval :      894.43   925.10   931.17   968.58   974.45   998.56
eigval :     1012.46  1021.86  1065.61  1072.96  1085.90  1115.65
eigval :     1123.37  1181.89  1203.34  1225.70  1227.82  1251.18
eigval :     1266.81  1282.36  1316.94  1408.61  1410.76  1421.68
eigval :     1451.09  1455.26  1461.98  1497.27  1501.01  1504.95
eigval :     1508.42  1577.47  1589.03  2938.90  2942.37  2949.31
eigval :     2960.77  3011.46  3013.19  3024.15  3024.75  3034.33
eigval :     3039.13  3058.99  3068.38  3074.78  3087.11  3094.12

   temp. (K)  partition function   enthalpy   heat capacity  entropy
                                   cal/mol     cal/K/mol   cal/K/mol   J/K/mol
 298.15  VIB  0.119E+05             6092.098     39.516     37.059
         ROT  0.113E+07              888.752      2.981     30.681
         INT  0.135E+11             6980.850     42.497     67.740
         TR   0.207E+28             1481.254      4.968     41.214
         TOT                        8462.1044    47.4655   108.9538   455.8625

       T/K    H(0)-H(T)+PV         H(T)/Eh          T*S/Eh         G(T)/Eh
   ------------------------------------------------------------------------
    298.15    0.134852E-01    0.232538E+00    0.517674E-01    0.180771E+00
   ------------------------------------------------------------------------

         :::::::::::::::::::::::::::::::::::::::::::::::::::::
         ::                  THERMODYNAMIC                  ::
         :::::::::::::::::::::::::::::::::::::::::::::::::::::
         :: total free energy         -31.375159198246 Eh   ::
         ::.................................................::
         :: total energy              -31.555930245047 Eh   ::
         :: zero point energy           0.219053267827 Eh   ::
         :: G(RRHO) w/o ZPVE           -0.038282221027 Eh   ::
         :: G(RRHO) contrib.            0.180771046801 Eh   ::
         :::::::::::::::::::::::::::::::::::::::::::::::::::::

           -------------------------------------------------
          | TOTAL ENERGY              -31.555930245047 Eh   |
          | TOTAL ENTHALPY            -31.323391755523 Eh   |
          | TOTAL FREE ENERGY         -31.375159198246 Eh   |
          | GRADIENT NORM               0.000024344296 Eh/α |
          | HOMO-LUMO GAP               3.637227866251 eV   |
           -------------------------------------------------

 * finished run on 2025/07/14 at 11:38:24.463
