   * xtb version 6.7.0 (08769fc) compiled by 'albert@albert-system' on 2024-03-04

   ID    Z sym.   atoms
    1   15 P      1
    2    6 C      2, 5, 9-14, 20, 23
    3    1 H      3, 4, 6-8, 15-19, 21, 22, 24-26

          program call               : /home/minenky/programs/xtb/xtb-dist/bin/xtb m1_00_PEt2Ph-PBE0-D3-TZ-uniMM_33.xyz --charge 0 --T --ohess extreme --cycles 5000 --acc 0.01 --iterations 5000
          :  Hamiltonian                  GFN2-xTB          :
 * total energy  :   -31.5437656 Eh     change       -0.2842171E-13 Eh
 * total energy  :   -31.5494709 Eh     change       -0.5705278E-02 Eh
 * total energy  :   -31.5510851 Eh     change       -0.1614220E-02 Eh
 * total energy  :   -31.5521388 Eh     change       -0.1053738E-02 Eh
 * total energy  :   -31.5528012 Eh     change       -0.6624014E-03 Eh
 * total energy  :   -31.5533292 Eh     change       -0.5279468E-03 Eh
 * total energy  :   -31.5537284 Eh     change       -0.3992040E-03 Eh
 * total energy  :   -31.5540328 Eh     change       -0.3044124E-03 Eh
 * total energy  :   -31.5543592 Eh     change       -0.3264582E-03 Eh
 * total energy  :   -31.5547768 Eh     change       -0.4175488E-03 Eh
 * total energy  :   -31.5561073 Eh     change       -0.4130368E-06 Eh
 * total energy  :   -31.5561077 Eh     change       -0.3731987E-06 Eh
 * total energy  :   -31.5561079 Eh     change       -0.2541405E-06 Eh
 * total energy  :   -31.5561081 Eh     change       -0.1575611E-06 Eh
 * total energy  :   -31.5561082 Eh     change       -0.1295620E-06 Eh
 * total energy  :   -31.5561083 Eh     change       -0.1250490E-06 Eh
 * total energy  :   -31.5561084 Eh     change       -0.9061140E-07 Eh
 * total energy  :   -31.5561085 Eh     change       -0.5330120E-07 Eh
 * total energy  :   -31.5561085 Eh     change       -0.3966588E-07 Eh
   *** GEOMETRY OPTIMIZATION CONVERGED AFTER 38 ITERATIONS ***

 final structure:
================
26
 xtb: 6.7.0 (08769fc)
P            1.64090138944905       -0.12025627779103       -2.95933030236746
C            1.57699844167722        0.71115224563699       -1.28877194653986
H            1.50942915508343       -0.08569968849613       -0.54269559443434
H            2.49670559269673        1.27210272829190       -1.10208571554861
C            0.35989664116888        1.61905590464060       -1.17887630264793
H           -0.55157440644131        1.05605065552462       -1.37070835728294
H            0.41847931764991        2.42713390833495       -1.90645941423156
H            0.29361269167285        2.05438989162672       -0.18299946742512
C            1.87912834414086        1.35888650749532       -4.03052241124943
C            2.78156644594436        2.38251443981983       -3.76502670010951
C            1.09331765020458        1.43555157230150       -5.17507881536202
C            2.89332488760428        3.45676107569776       -4.62830588263262
C            1.20538244548072        2.50918762527250       -6.04020798747315
C            2.10723298282694        3.52307232087321       -5.76708032599979
H            3.40160317139444        2.35121146275204       -2.88036722316280
H            0.38890534925934        0.64098331956120       -5.37943869617428
H            3.59730336741732        4.24801349221487       -4.41186350084765
H            0.58873433449681        2.55659457188249       -6.92620047599154
H            2.19798736247347        4.36482824651886       -6.43810927142505
C            3.41598390640134       -0.70232164252601       -2.92818715796964
H            3.67633519002252       -0.94918573688150       -3.96173918775725
H            4.07363903320212        0.10644999002204       -2.59854009354022
C            3.59195863913622       -1.93029279917905       -2.04507738846062
H            2.91676010892693       -2.72354828008863       -2.35972761174408
H            3.37880945355484       -1.69403293865210       -1.00468808970255
H            4.61343450456100       -2.30212659485838       -2.10844807992103

          :  Hamiltonian                  GFN2-xTB          :
         :: gradient norm              0.000033356957 Eh/a0 ::
         :: HOMO-LUMO gap              3.637913776443 eV    ::
         :: SCC energy               -32.076729734276 Eh    ::
         :: -> dispersion             -0.023675859850 Eh    ::
         :: repulsion energy           0.520621212575 Eh    ::

    * Orbital Energies and Occupations

         #    Occupation            Energy/Eh            Energy/eV
      -------------------------------------------------------------
         1        2.0000           -0.6578472             -17.9009
       ...           ...                  ...                  ...
        18        2.0000           -0.4774587             -12.9923
        19        2.0000           -0.4745344             -12.9127
        20        2.0000           -0.4629003             -12.5962
        21        2.0000           -0.4620829             -12.5739
        22        2.0000           -0.4534641             -12.3394
        23        2.0000           -0.4448464             -12.1049
        24        2.0000           -0.4375944             -11.9075
        25        2.0000           -0.4232773             -11.5180
        26        2.0000           -0.4184247             -11.3859
        27        2.0000           -0.4045489             -11.0083
        28        2.0000           -0.4044526             -11.0057
        29        2.0000           -0.3968239             -10.7981
        30        2.0000           -0.3670037              -9.9867 (HOMO)
        31                         -0.2333128              -6.3488 (LUMO)
        32                         -0.2229988              -6.0681
        33                         -0.1563875              -4.2555
        34                         -0.1498031              -4.0764
        35                         -0.0930108              -2.5310
        36                          0.0043563               0.1185
        37                          0.0552935               1.5046
        38                          0.0890495               2.4232
        39                          0.0958116               2.6072
        40                          0.1356900               3.6923
        41                          0.1377006               3.7470
       ...                                ...                  ...
        64                          0.7862156              21.3940
      -------------------------------------------------------------
                  HL-Gap            0.1336909 Eh            3.6379 eV

     #   Z          covCN         q      C6AA      α(0)
     1  15 P        3.046    -0.116   165.502    23.111
     2   6 C        3.748    -0.045    21.446     6.605
     3   1 H        0.926     0.039     2.464     2.455
     4   1 H        0.925     0.042     2.424     2.435
     5   6 C        3.820    -0.096    22.314     6.722
     6   1 H        0.925     0.041     2.435     2.440
     7   1 H        0.925     0.035     2.511     2.478
     8   1 H        0.925     0.032     2.555     2.500
     9   6 C        2.916     0.008    27.844     8.653
    10   6 C        2.960    -0.028    28.704     8.788
    11   6 C        3.016    -0.030    28.735     8.793
    12   6 C        2.919    -0.031    28.779     8.797
    13   6 C        2.918    -0.030    28.741     8.791
    14   6 C        2.920    -0.029    28.731     8.790
    15   1 H        0.926     0.032     2.561     2.502
    16   1 H        0.925     0.040     2.453     2.449
    17   1 H        0.926     0.028     2.611     2.527
    18   1 H        0.926     0.030     2.580     2.512
    19   1 H        0.926     0.029     2.596     2.519
    20   6 C        3.748    -0.046    21.473     6.609
    21   1 H        0.926     0.038     2.469     2.457
    22   1 H        0.925     0.043     2.413     2.429
    23   6 C        3.812    -0.098    22.355     6.730
    24   1 H        0.925     0.042     2.423     2.434
    25   1 H        0.925     0.037     2.494     2.470
    26   1 H        0.925     0.033     2.539     2.492

Wiberg/Mayer (AO) data.
largest (>0.10) Wiberg bond orders for each atom

     #   Z sym  total        # sym  WBO       # sym  WBO       # sym  WBO
 ---------------------------------------------------------------------------
     1  15 P    3.345 --     2 C    1.027    20 C    1.022     9 C    1.006
     2   6 C    3.993 --     1 P    1.027     5 C    1.016     3 H    0.958
                             4 H    0.950
     3   1 H    0.998 --     2 C    0.958
     4   1 H    0.998 --     2 C    0.950
     5   6 C    3.997 --     2 C    1.016     8 H    0.985     6 H    0.984
                             7 H    0.984
     6   1 H    0.998 --     5 C    0.984
     7   1 H    0.999 --     5 C    0.984
     8   1 H    0.999 --     5 C    0.985
     9   6 C    3.983 --    11 C    1.409    10 C    1.400     1 P    1.006
                            14 C    0.108
    10   6 C    3.992 --    12 C    1.450     9 C    1.400    15 H    0.961
                            13 C    0.111
    11   6 C    3.991 --    13 C    1.443     9 C    1.409    16 H    0.964
                            12 C    0.108
    12   6 C    3.993 --    10 C    1.450    14 C    1.432    17 H    0.970
                            11 C    0.108
    13   6 C    3.992 --    11 C    1.443    14 C    1.441    18 H    0.970
                            10 C    0.111
    14   6 C    3.989 --    13 C    1.441    12 C    1.432    19 H    0.971
                             9 C    0.108
    15   1 H    0.999 --    10 C    0.961
    16   1 H    0.998 --    11 C    0.964
    17   1 H    0.999 --    12 C    0.970
    18   1 H    0.999 --    13 C    0.970
    19   1 H    0.998 --    14 C    0.971
    20   6 C    3.995 --     1 P    1.022    23 C    1.016    21 H    0.959
                            22 H    0.951
    21   1 H    0.998 --    20 C    0.959
    22   1 H    0.998 --    20 C    0.951
    23   6 C    3.996 --    20 C    1.016    25 H    0.985    24 H    0.985
                            26 H    0.984
    24   1 H    0.998 --    23 C    0.985
    25   1 H    0.999 --    23 C    0.985
    26   1 H    0.998 --    23 C    0.984
 ---------------------------------------------------------------------------

molecular dipole:
                 x           y           z       tot (Debye)
 q only:        0.185       0.092       0.148
   full:        0.477       0.367       0.229       1.637

 projected vibrational frequencies (cm⁻¹)
eigval :       -0.00     0.00     0.00     0.00     0.00     0.00
eigval :       19.83    51.27    71.54    95.05   141.34   166.14
eigval :      203.57   215.31   224.64   266.22   311.52   329.21
eigval :      363.39   426.32   450.15   586.03   655.59   660.56
eigval :      686.50   701.45   738.96   754.63   777.70   874.73
eigval :      898.92   926.59   932.74   968.78   974.96   997.10
eigval :     1013.10  1016.93  1071.37  1076.68  1083.13  1117.41
eigval :     1121.37  1181.65  1198.80  1220.80  1226.02  1250.22
eigval :     1255.30  1278.37  1315.52  1409.41  1411.24  1423.39
eigval :     1445.27  1450.07  1458.31  1497.31  1498.59  1501.82
eigval :     1502.25  1579.88  1589.69  2930.08  2935.83  2947.15
eigval :     2950.31  3013.56  3014.22  3019.81  3026.72  3029.37
eigval :     3033.62  3063.11  3064.03  3071.81  3077.45  3087.88

   temp. (K)  partition function   enthalpy   heat capacity  entropy
                                   cal/mol     cal/K/mol   cal/K/mol   J/K/mol
 298.15  VIB  0.348E+05             6243.482     39.217     38.766
         ROT  0.122E+07              888.752      2.981     30.823
         INT  0.423E+11             7132.235     42.198     69.589
         TR   0.207E+28             1481.254      4.968     41.214
         TOT                        8613.4884    47.1659   110.8027   463.5986

       T/K    H(0)-H(T)+PV         H(T)/Eh          T*S/Eh         G(T)/Eh
   ------------------------------------------------------------------------
    298.15    0.137265E-01    0.232270E+00    0.526460E-01    0.179624E+00
   ------------------------------------------------------------------------

         :::::::::::::::::::::::::::::::::::::::::::::::::::::
         ::                  THERMODYNAMIC                  ::
         :::::::::::::::::::::::::::::::::::::::::::::::::::::
         :: total free energy         -31.376484355925 Eh   ::
         ::.................................................::
         :: total energy              -31.556108521701 Eh   ::
         :: zero point energy           0.218543649264 Eh   ::
         :: G(RRHO) w/o ZPVE           -0.038919483488 Eh   ::
         :: G(RRHO) contrib.            0.179624165776 Eh   ::
         :::::::::::::::::::::::::::::::::::::::::::::::::::::

           -------------------------------------------------
          | TOTAL ENERGY              -31.556108521701 Eh   |
          | TOTAL ENTHALPY            -31.323838404874 Eh   |
          | TOTAL FREE ENERGY         -31.376484355925 Eh   |
          | GRADIENT NORM               0.000033357785 Eh/α |
          | HOMO-LUMO GAP               3.637913761190 eV   |
           -------------------------------------------------

 * finished run on 2025/07/14 at 11:30:14.806
