   * xtb version 6.7.0 (08769fc) compiled by 'albert@albert-system' on 2024-03-04

   ID    Z sym.   atoms
    1   15 P      1
    2    6 C      2, 5, 9-14, 20, 23
    3    1 H      3, 4, 6-8, 15-19, 21, 22, 24-26

          program call               : /home/minenky/programs/xtb/xtb-dist/bin/xtb m1_00_PEt2Ph-PBE0-D3-TZ-uniMM_72.xyz --charge 0 --T --ohess extreme --cycles 5000 --acc 0.01 --iterations 5000
          :  Hamiltonian                  GFN2-xTB          :
 * total energy  :   -31.5271827 Eh     change       -0.1776357E-12 Eh
 * total energy  :   -31.5402228 Eh     change       -0.1304016E-01 Eh
 * total energy  :   -31.5449658 Eh     change       -0.4742985E-02 Eh
 * total energy  :   -31.5479364 Eh     change       -0.2970584E-02 Eh
 * total energy  :   -31.5496594 Eh     change       -0.1722983E-02 Eh
 * total energy  :   -31.5507420 Eh     change       -0.1082672E-02 Eh
 * total energy  :   -31.5515152 Eh     change       -0.7731924E-03 Eh
 * total energy  :   -31.5520969 Eh     change       -0.5816444E-03 Eh
 * total energy  :   -31.5525671 Eh     change       -0.4702370E-03 Eh
 * total energy  :   -31.5529550 Eh     change       -0.3878553E-03 Eh
 * total energy  :   -31.5559214 Eh     change       -0.8238949E-06 Eh
 * total energy  :   -31.5559221 Eh     change       -0.6745577E-06 Eh
 * total energy  :   -31.5559226 Eh     change       -0.5190063E-06 Eh
 * total energy  :   -31.5559230 Eh     change       -0.3977606E-06 Eh
 * total energy  :   -31.5559233 Eh     change       -0.3418121E-06 Eh
 * total energy  :   -31.5559237 Eh     change       -0.3393320E-06 Eh
 * total energy  :   -31.5559240 Eh     change       -0.3888820E-06 Eh
 * total energy  :   -31.5559244 Eh     change       -0.3934922E-06 Eh
 * total energy  :   -31.5559244 Eh     change       -0.2807941E-08 Eh
   *** GEOMETRY OPTIMIZATION CONVERGED AFTER 68 ITERATIONS ***

 final structure:
================
26
 xtb: 6.7.0 (08769fc)
P            1.80011398778231       -0.20319179144771       -2.73274901880992
C            1.31460729943535       -1.28558977984820       -4.17806239025757
H            0.83520464763625       -0.61859072469702       -4.89988464620479
H            2.24522283539216       -1.63089180292779       -4.63670285771502
C            0.39749118915878       -2.46224799009797       -3.87544841812855
H           -0.49304730392712       -2.13010422066020       -3.34429023475036
H            0.90133088462475       -3.21354511535515       -3.27230478464999
H            0.08476883563444       -2.93472567951666       -4.80560877625091
C            0.11641187927047        0.13849580238431       -2.08773004204467
C           -0.33475618686125       -0.21291248874079       -0.82113555636231
C           -0.72336300919643        0.88495695373578       -2.91256522361348
C           -1.61002916029660        0.13625389789590       -0.41020351569698
C           -1.99653354220286        1.22973782072358       -2.50372261321745
C           -2.44690890377117        0.84990641707464       -1.24959632874689
H            0.30219919462812       -0.76121470422339       -0.14400540612118
H           -0.36704564988155        1.19743736426274       -3.88494311738246
H           -1.95060512088682       -0.15165789940099        0.57437077776496
H           -2.63812569335985        1.80047220098039       -3.15975405617267
H           -3.44201844581493        1.11731946898890       -0.92559024658497
C            2.39740633631735       -1.48853195737511       -1.52153235590827
H            2.58097406432971       -0.96181358258479       -0.58035607916969
H            1.63079981462312       -2.24739810661902       -1.34887511175501
C            3.69613619782296       -2.12875075491105       -1.99517276534675
H            4.43851167236955       -1.36343028421400       -2.21420077896355
H            3.53712127177338       -2.71654158499853       -2.89656360342306
H            4.09780490539801       -2.78749745842674       -1.22661385049111

          :  Hamiltonian                  GFN2-xTB          :
         :: gradient norm              0.000040946927 Eh/a0 ::
         :: HOMO-LUMO gap              3.638372303048 eV    ::
         :: SCC energy               -32.077058028721 Eh    ::
         :: -> dispersion             -0.024353360744 Eh    ::
         :: repulsion energy           0.521133590150 Eh    ::

    * Orbital Energies and Occupations

         #    Occupation            Energy/Eh            Energy/eV
      -------------------------------------------------------------
         1        2.0000           -0.6587425             -17.9253
       ...           ...                  ...                  ...
        18        2.0000           -0.4770760             -12.9819
        19        2.0000           -0.4740396             -12.8993
        20        2.0000           -0.4689800             -12.7616
        21        2.0000           -0.4616139             -12.5612
        22        2.0000           -0.4527200             -12.3191
        23        2.0000           -0.4450814             -12.1113
        24        2.0000           -0.4393460             -11.9552
        25        2.0000           -0.4246371             -11.5550
        26        2.0000           -0.4144563             -11.2779
        27        2.0000           -0.4077409             -11.0952
        28        2.0000           -0.4028383             -10.9618
        29        2.0000           -0.4006451             -10.9021
        30        2.0000           -0.3635988              -9.8940 (HOMO)
        31                         -0.2298911              -6.2557 (LUMO)
        32                         -0.2215514              -6.0287
        33                         -0.1543226              -4.1993
        34                         -0.1499854              -4.0813
        35                         -0.0933305              -2.5397
        36                          0.0100814               0.2743
        37                          0.0445318               1.2118
        38                          0.1067566               2.9050
        39                          0.1119679               3.0468
        40                          0.1163816               3.1669
        41                          0.1321271               3.5954
       ...                                ...                  ...
        64                          0.7999224              21.7670
      -------------------------------------------------------------
                  HL-Gap            0.1337077 Eh            3.6384 eV

     #   Z          covCN         q      C6AA      α(0)
     1  15 P        3.021    -0.113   165.382    23.103
     2   6 C        3.748    -0.044    21.427     6.602
     3   1 H        0.926     0.042     2.423     2.434
     4   1 H        0.926     0.041     2.440     2.443
     5   6 C        3.780    -0.094    22.320     6.730
     6   1 H        0.925     0.037     2.483     2.464
     7   1 H        0.925     0.038     2.479     2.462
     8   1 H        0.925     0.032     2.560     2.502
     9   6 C        2.915     0.010    27.791     8.645
    10   6 C        2.960    -0.033    28.832     8.807
    11   6 C        3.022    -0.030    28.725     8.791
    12   6 C        2.919    -0.031    28.768     8.796
    13   6 C        2.918    -0.030    28.753     8.793
    14   6 C        2.920    -0.031    28.776     8.797
    15   1 H        0.926     0.033     2.549     2.497
    16   1 H        0.925     0.034     2.531     2.488
    17   1 H        0.926     0.028     2.618     2.530
    18   1 H        0.926     0.029     2.603     2.523
    19   1 H        0.926     0.028     2.611     2.527
    20   6 C        3.748    -0.045    21.449     6.606
    21   1 H        0.926     0.041     2.441     2.443
    22   1 H        0.925     0.047     2.361     2.403
    23   6 C        3.819    -0.097    22.332     6.725
    24   1 H        0.925     0.041     2.431     2.438
    25   1 H        0.925     0.037     2.489     2.467
    26   1 H        0.925     0.032     2.556     2.500

Wiberg/Mayer (AO) data.
largest (>0.10) Wiberg bond orders for each atom

     #   Z sym  total        # sym  WBO       # sym  WBO       # sym  WBO
 ---------------------------------------------------------------------------
     1  15 P    3.377 --    20 C    1.028     9 C    1.019     2 C    1.014
     2   6 C    3.994 --     1 P    1.014     5 C    1.012     4 H    0.956
                             3 H    0.954
     3   1 H    0.998 --     2 C    0.954
     4   1 H    0.998 --     2 C    0.956
     5   6 C    3.997 --     2 C    1.012     7 H    0.984     8 H    0.983
                             6 H    0.983
     6   1 H    0.999 --     5 C    0.983
     7   1 H    0.999 --     5 C    0.984
     8   1 H    0.999 --     5 C    0.983
     9   6 C    3.982 --    10 C    1.402    11 C    1.390     1 P    1.019
                            14 C    0.106
    10   6 C    3.993 --    12 C    1.440     9 C    1.402    15 H    0.963
                            13 C    0.107
    11   6 C    3.992 --    13 C    1.457     9 C    1.390    16 H    0.962
                            12 C    0.110
    12   6 C    3.993 --    14 C    1.442    10 C    1.440    17 H    0.970
                            11 C    0.110
    13   6 C    3.992 --    11 C    1.457    14 C    1.428    18 H    0.970
                            10 C    0.107
    14   6 C    3.992 --    12 C    1.442    13 C    1.428    19 H    0.971
                             9 C    0.106
    15   1 H    0.999 --    10 C    0.963
    16   1 H    0.999 --    11 C    0.962
    17   1 H    0.999 --    12 C    0.970
    18   1 H    0.999 --    13 C    0.970
    19   1 H    0.998 --    14 C    0.971
    20   6 C    3.995 --     1 P    1.028    23 C    1.015    21 H    0.956
                            22 H    0.951
    21   1 H    0.998 --    20 C    0.956
    22   1 H    0.998 --    20 C    0.951
    23   6 C    3.996 --    20 C    1.015    26 H    0.985    24 H    0.984
                            25 H    0.984
    24   1 H    0.998 --    23 C    0.984
    25   1 H    0.999 --    23 C    0.984
    26   1 H    0.999 --    23 C    0.985
 ---------------------------------------------------------------------------

molecular dipole:
                 x           y           z       tot (Debye)
 q only:       -0.008      -0.347      -0.033
   full:       -0.245      -0.615       0.046       1.686

 projected vibrational frequencies (cm⁻¹)
eigval :       -0.00    -0.00    -0.00    -0.00     0.00     0.00
eigval :       27.94    69.65    80.87   127.27   129.11   199.27
eigval :      204.09   227.67   261.25   277.01   284.01   356.52
eigval :      363.06   407.23   472.72   585.97   638.48   657.15
eigval :      683.14   704.81   729.27   747.05   791.38   871.25
eigval :      894.59   925.15   931.21   968.66   974.29   998.51
eigval :     1012.22  1021.86  1065.58  1072.81  1085.78  1115.61
eigval :     1123.21  1181.85  1203.19  1225.69  1227.97  1250.83
eigval :     1266.83  1282.15  1316.98  1408.46  1410.67  1421.71
eigval :     1450.91  1454.66  1461.96  1497.35  1500.98  1504.74
eigval :     1508.67  1577.56  1589.08  2939.07  2942.43  2949.68
eigval :     2960.55  3011.47  3013.26  3023.65  3024.82  3034.14
eigval :     3038.86  3057.98  3068.34  3074.66  3087.03  3094.10

   temp. (K)  partition function   enthalpy   heat capacity  entropy
                                   cal/mol     cal/K/mol   cal/K/mol   J/K/mol
 298.15  VIB  0.119E+05             6094.616     39.516     37.089
         ROT  0.113E+07              888.752      2.981     30.681
         INT  0.135E+11             6983.368     42.497     67.771
         TR   0.207E+28             1481.254      4.968     41.214
         TOT                        8464.6221    47.4649   108.9841   455.9895

       T/K    H(0)-H(T)+PV         H(T)/Eh          T*S/Eh         G(T)/Eh
   ------------------------------------------------------------------------
    298.15    0.134892E-01    0.232530E+00    0.517819E-01    0.180749E+00
   ------------------------------------------------------------------------

         :::::::::::::::::::::::::::::::::::::::::::::::::::::
         ::                  THERMODYNAMIC                  ::
         :::::::::::::::::::::::::::::::::::::::::::::::::::::
         :: total free energy         -31.375175932692 Eh   ::
         ::.................................................::
         :: total energy              -31.555924438571 Eh   ::
         :: zero point energy           0.219041139658 Eh   ::
         :: G(RRHO) w/o ZPVE           -0.038292633779 Eh   ::
         :: G(RRHO) contrib.            0.180748505879 Eh   ::
         :::::::::::::::::::::::::::::::::::::::::::::::::::::

           -------------------------------------------------
          | TOTAL ENERGY              -31.555924438571 Eh   |
          | TOTAL ENTHALPY            -31.323394064970 Eh   |
          | TOTAL FREE ENERGY         -31.375175932692 Eh   |
          | GRADIENT NORM               0.000040946457 Eh/α |
          | HOMO-LUMO GAP               3.638372264602 eV   |
           -------------------------------------------------

 * finished run on 2025/07/14 at 11:38:33.489
