   * xtb version 6.7.0 (08769fc) compiled by 'albert@albert-system' on 2024-03-04

   ID    Z sym.   atoms
    1   15 P      1
    2    6 C      2, 5, 9-14, 20, 23
    3    1 H      3, 4, 6-8, 15-19, 21, 22, 24-26

          program call               : /home/minenky/programs/xtb/xtb-dist/bin/xtb m1_00_PEt2Ph-PBE0-D3-TZ-uniMM_59.xyz --charge 0 --T --ohess extreme --cycles 5000 --acc 0.01 --iterations 5000
          :  Hamiltonian                  GFN2-xTB          :
 * total energy  :   -31.5342864 Eh     change       -0.3552714E-13 Eh
 * total energy  :   -31.5460500 Eh     change       -0.1176357E-01 Eh
 * total energy  :   -31.5491715 Eh     change       -0.3121492E-02 Eh
 * total energy  :   -31.5512281 Eh     change       -0.2056674E-02 Eh
 * total energy  :   -31.5522973 Eh     change       -0.1069197E-02 Eh
 * total energy  :   -31.5528798 Eh     change       -0.5824854E-03 Eh
 * total energy  :   -31.5532072 Eh     change       -0.3274198E-03 Eh
 * total energy  :   -31.5534411 Eh     change       -0.2338708E-03 Eh
 * total energy  :   -31.5536354 Eh     change       -0.1942810E-03 Eh
 * total energy  :   -31.5537788 Eh     change       -0.1434213E-03 Eh
 * total energy  :   -31.5559292 Eh     change       -0.8697472E-07 Eh
 * total energy  :   -31.5559293 Eh     change       -0.7987241E-07 Eh
 * total energy  :   -31.5559294 Eh     change       -0.6470282E-07 Eh
 * total energy  :   -31.5559295 Eh     change       -0.6849990E-07 Eh
 * total energy  :   -31.5559295 Eh     change       -0.6342304E-07 Eh
 * total energy  :   -31.5559296 Eh     change       -0.6521860E-07 Eh
 * total energy  :   -31.5559296 Eh     change       -0.5963057E-07 Eh
 * total energy  :   -31.5559297 Eh     change       -0.5620744E-07 Eh
 * total energy  :   -31.5559297 Eh     change       -0.3904326E-09 Eh
   *** GEOMETRY OPTIMIZATION CONVERGED AFTER 68 ITERATIONS ***

 final structure:
================
26
 xtb: 6.7.0 (08769fc)
P            2.01306773298014        0.05715405977137       -3.03283068942646
C            0.77243267759035       -1.08827681799726       -2.22994259223907
H           -0.11028760433121       -1.06967997725761       -2.87501496972168
H            1.19025588980326       -2.09658417637075       -2.29632957702658
C            0.37084804948697       -0.76779795533101       -0.79705520518761
H            0.02849117724820        0.26241924430922       -0.71400844289732
H            1.20069373944946       -0.91397123683337       -0.10999831353035
H           -0.44069146129549       -1.42420031816906       -0.48595853213191
C            1.16490146164963        1.64722920107958       -2.68696999227714
C            1.71111795348962        2.68997115987391       -1.94809225546339
C           -0.07424415813316        1.83814315179430       -3.29596064973575
C            1.01323366684230        3.87478188050964       -1.78643989187808
C           -0.77178160719083        3.01852927288062       -3.13100045552483
C           -0.23095895360503        4.04111388531117       -2.36830748819743
H            2.68421003093858        2.58869117579599       -1.49236270137134
H           -0.49058207752311        1.04824613759299       -3.90643260200295
H            1.44692522502647        4.67366352054006       -1.20166633074887
H           -1.73614228758011        3.14572373396282       -3.60174508533855
H           -0.77315408693380        4.96598868966978       -2.23657332907070
C            3.35451168384946        0.07722408926879       -1.73785856177339
H            4.08190220281628        0.82777858670123       -2.06109753889596
H            2.95406608881730        0.37998545730593       -0.76756583288874
C            4.04710040665837       -1.27613404372017       -1.64019652025974
H            4.39527774166954       -1.59573173093876       -2.62073863037578
H            3.37063957341579       -2.03581119995011       -1.25481440036828
H            4.90582793486129       -1.21631678979982       -0.97311741166770

          :  Hamiltonian                  GFN2-xTB          :
         :: gradient norm              0.000015914017 Eh/a0 ::
         :: HOMO-LUMO gap              3.637262505792 eV    ::
         :: SCC energy               -32.077067328578 Eh    ::
         :: -> dispersion             -0.024359659203 Eh    ::
         :: repulsion energy           0.521137631158 Eh    ::

    * Orbital Energies and Occupations

         #    Occupation            Energy/Eh            Energy/eV
      -------------------------------------------------------------
         1        2.0000           -0.6587503             -17.9255
       ...           ...                  ...                  ...
        18        2.0000           -0.4770492             -12.9812
        19        2.0000           -0.4739993             -12.8982
        20        2.0000           -0.4690156             -12.7626
        21        2.0000           -0.4616361             -12.5618
        22        2.0000           -0.4527114             -12.3189
        23        2.0000           -0.4451286             -12.1126
        24        2.0000           -0.4393578             -11.9555
        25        2.0000           -0.4246913             -11.5564
        26        2.0000           -0.4143653             -11.2755
        27        2.0000           -0.4078308             -11.0976
        28        2.0000           -0.4028023             -10.9608
        29        2.0000           -0.4006944             -10.9034
        30        2.0000           -0.3635334              -9.8922 (HOMO)
        31                         -0.2298665              -6.2550 (LUMO)
        32                         -0.2215297              -6.0281
        33                         -0.1544887              -4.2039
        34                         -0.1498713              -4.0782
        35                         -0.0933226              -2.5394
        36                          0.0106810               0.2906
        37                          0.0440137               1.1977
        38                          0.1059584               2.8833
        39                          0.1121696               3.0523
        40                          0.1165158               3.1706
        41                          0.1319531               3.5906
       ...                                ...                  ...
        64                          0.7998184              21.7642
      -------------------------------------------------------------
                  HL-Gap            0.1336669 Eh            3.6373 eV

     #   Z          covCN         q      C6AA      α(0)
     1  15 P        3.019    -0.113   165.364    23.101
     2   6 C        3.748    -0.044    21.428     6.602
     3   1 H        0.926     0.042     2.424     2.435
     4   1 H        0.926     0.041     2.439     2.442
     5   6 C        3.780    -0.094    22.320     6.730
     6   1 H        0.925     0.037     2.483     2.464
     7   1 H        0.925     0.038     2.479     2.462
     8   1 H        0.925     0.032     2.560     2.502
     9   6 C        2.915     0.010    27.791     8.645
    10   6 C        2.961    -0.034    28.833     8.807
    11   6 C        3.021    -0.030    28.727     8.792
    12   6 C        2.919    -0.031    28.767     8.795
    13   6 C        2.918    -0.030    28.754     8.793
    14   6 C        2.920    -0.031    28.777     8.797
    15   1 H        0.926     0.033     2.550     2.497
    16   1 H        0.925     0.034     2.532     2.489
    17   1 H        0.926     0.028     2.617     2.530
    18   1 H        0.926     0.029     2.604     2.523
    19   1 H        0.926     0.028     2.611     2.527
    20   6 C        3.748    -0.045    21.450     6.606
    21   1 H        0.926     0.041     2.441     2.443
    22   1 H        0.925     0.047     2.362     2.403
    23   6 C        3.818    -0.097    22.332     6.726
    24   1 H        0.925     0.041     2.431     2.438
    25   1 H        0.925     0.037     2.488     2.467
    26   1 H        0.925     0.032     2.556     2.500

Wiberg/Mayer (AO) data.
largest (>0.10) Wiberg bond orders for each atom

     #   Z sym  total        # sym  WBO       # sym  WBO       # sym  WBO
 ---------------------------------------------------------------------------
     1  15 P    3.378 --    20 C    1.027     9 C    1.019     2 C    1.014
     2   6 C    3.994 --     1 P    1.014     5 C    1.012     4 H    0.956
                             3 H    0.954
     3   1 H    0.998 --     2 C    0.954
     4   1 H    0.998 --     2 C    0.956
     5   6 C    3.997 --     2 C    1.012     7 H    0.984     8 H    0.983
                             6 H    0.983
     6   1 H    0.999 --     5 C    0.983
     7   1 H    0.999 --     5 C    0.984
     8   1 H    0.999 --     5 C    0.983
     9   6 C    3.982 --    10 C    1.402    11 C    1.390     1 P    1.019
                            14 C    0.106
    10   6 C    3.993 --    12 C    1.441     9 C    1.402    15 H    0.963
                            13 C    0.107
    11   6 C    3.992 --    13 C    1.457     9 C    1.390    16 H    0.962
                            12 C    0.110
    12   6 C    3.993 --    14 C    1.441    10 C    1.441    17 H    0.970
                            11 C    0.110
    13   6 C    3.992 --    11 C    1.457    14 C    1.428    18 H    0.970
                            10 C    0.107
    14   6 C    3.991 --    12 C    1.441    13 C    1.428    19 H    0.971
                             9 C    0.106
    15   1 H    0.999 --    10 C    0.963
    16   1 H    0.999 --    11 C    0.962
    17   1 H    0.999 --    12 C    0.970
    18   1 H    0.999 --    13 C    0.970
    19   1 H    0.998 --    14 C    0.971
    20   6 C    3.995 --     1 P    1.027    23 C    1.015    21 H    0.956
                            22 H    0.951
    21   1 H    0.998 --    20 C    0.956
    22   1 H    0.998 --    20 C    0.951
    23   6 C    3.996 --    20 C    1.015    26 H    0.985    24 H    0.984
                            25 H    0.984
    24   1 H    0.998 --    23 C    0.984
    25   1 H    0.999 --    23 C    0.984
    26   1 H    0.999 --    23 C    0.985
 ---------------------------------------------------------------------------

molecular dipole:
                 x           y           z       tot (Debye)
 q only:       -0.001      -0.151       0.315
   full:       -0.106      -0.055       0.652       1.686

 projected vibrational frequencies (cm⁻¹)
eigval :       -0.00    -0.00    -0.00    -0.00     0.00     0.00
eigval :       27.26    70.27    81.51   127.32   129.52   199.73
eigval :      204.23   228.01   261.52   277.18   283.91   356.91
eigval :      363.04   406.33   472.97   585.94   638.32   657.07
eigval :      683.26   704.66   729.39   746.81   791.31   871.08
eigval :      894.43   925.07   931.15   968.61   974.40   998.53
eigval :     1012.42  1021.88  1065.60  1072.94  1085.87  1115.67
eigval :     1123.35  1181.89  1203.34  1225.69  1227.85  1251.11
eigval :     1266.80  1282.33  1316.94  1408.55  1410.73  1421.68
eigval :     1451.09  1455.13  1461.93  1497.32  1501.05  1504.89
eigval :     1508.48  1577.47  1589.07  2938.99  2942.41  2949.39
eigval :     2960.73  3011.45  3013.19  3024.00  3024.80  3034.30
eigval :     3039.06  3058.84  3068.35  3074.78  3087.03  3094.13

   temp. (K)  partition function   enthalpy   heat capacity  entropy
                                   cal/mol     cal/K/mol   cal/K/mol   J/K/mol
 298.15  VIB  0.119E+05             6092.513     39.516     37.064
         ROT  0.113E+07              888.752      2.981     30.681
         INT  0.135E+11             6981.265     42.497     67.745
         TR   0.207E+28             1481.254      4.968     41.214
         TOT                        8462.5189    47.4648   108.9585   455.8822

       T/K    H(0)-H(T)+PV         H(T)/Eh          T*S/Eh         G(T)/Eh
   ------------------------------------------------------------------------
    298.15    0.134859E-01    0.232537E+00    0.517697E-01    0.180767E+00
   ------------------------------------------------------------------------

         :::::::::::::::::::::::::::::::::::::::::::::::::::::
         ::                  THERMODYNAMIC                  ::
         :::::::::::::::::::::::::::::::::::::::::::::::::::::
         :: total free energy         -31.375162576197 Eh   ::
         ::.................................................::
         :: total energy              -31.555929697421 Eh   ::
         :: zero point energy           0.219050916266 Eh   ::
         :: G(RRHO) w/o ZPVE           -0.038283795043 Eh   ::
         :: G(RRHO) contrib.            0.180767121223 Eh   ::
         :::::::::::::::::::::::::::::::::::::::::::::::::::::

           -------------------------------------------------
          | TOTAL ENERGY              -31.555929697421 Eh   |
          | TOTAL ENTHALPY            -31.323392898937 Eh   |
          | TOTAL FREE ENERGY         -31.375162576197 Eh   |
          | GRADIENT NORM               0.000015914179 Eh/α |
          | HOMO-LUMO GAP               3.637262484181 eV   |
           -------------------------------------------------

 * finished run on 2025/07/14 at 11:35:47.469
