   * xtb version 6.7.0 (08769fc) compiled by 'albert@albert-system' on 2024-03-04

   ID    Z sym.   atoms
    1   15 P      1
    2    6 C      2, 5, 9-14, 20, 23
    3    1 H      3, 4, 6-8, 15-19, 21, 22, 24-26

          program call               : /home/minenky/programs/xtb/xtb-dist/bin/xtb m1_00_PEt2Ph-PBE0-D3-TZ-uniMM_60.xyz --charge 0 --T --ohess extreme --cycles 5000 --acc 0.01 --iterations 5000
          :  Hamiltonian                  GFN2-xTB          :
 * total energy  :   -31.5322561 Eh     change       -0.7105427E-14 Eh
 * total energy  :   -31.5431282 Eh     change       -0.1087209E-01 Eh
 * total energy  :   -31.5473480 Eh     change       -0.4219863E-02 Eh
 * total energy  :   -31.5497213 Eh     change       -0.2373309E-02 Eh
 * total energy  :   -31.5508074 Eh     change       -0.1086035E-02 Eh
 * total energy  :   -31.5513005 Eh     change       -0.4931083E-03 Eh
 * total energy  :   -31.5516077 Eh     change       -0.3072326E-03 Eh
 * total energy  :   -31.5519268 Eh     change       -0.3190579E-03 Eh
 * total energy  :   -31.5522881 Eh     change       -0.3613357E-03 Eh
 * total energy  :   -31.5527780 Eh     change       -0.4898488E-03 Eh
 * total energy  :   -31.5556665 Eh     change        0.4020168E-07 Eh
 * total energy  :   -31.5556670 Eh     change       -0.5242648E-06 Eh
 * total energy  :   -31.5556675 Eh     change       -0.4777227E-06 Eh
 * total energy  :   -31.5556675 Eh     change        0.6084086E-08 Eh
 * total energy  :   -31.5556679 Eh     change       -0.4301105E-06 Eh
 * total energy  :   -31.5556682 Eh     change       -0.3448078E-06 Eh
 * total energy  :   -31.5556684 Eh     change       -0.2037949E-06 Eh
 * total energy  :   -31.5556686 Eh     change       -0.1397454E-06 Eh
 * total energy  :   -31.5556686 Eh     change       -0.4660886E-07 Eh
   *** GEOMETRY OPTIMIZATION CONVERGED AFTER 54 ITERATIONS ***

 final structure:
================
26
 xtb: 6.7.0 (08769fc)
P            1.83420714071585        0.00734405966122       -2.93241962725130
C            0.79932636014113       -1.38329659871514       -3.63274919355618
H            0.14863950289141       -1.71472471408268       -2.81868215262364
H            0.15724159502639       -0.93349155619879       -4.39580005186691
C            1.55298962002409       -2.57490106729217       -4.20716314478128
H            2.24778101914469       -2.98121866356718       -3.47415377650852
H            2.11058887601593       -2.29754648878561       -5.09819029896935
H            0.84851915238843       -3.35869036547418       -4.48191059704508
C            2.90009160339878       -1.00240438662777       -1.82971739026514
C            4.26333666081833       -1.21490093498558       -1.98995946655151
C            2.26727406588662       -1.53407638326246       -0.70732457452216
C            4.96639113142249       -1.97170446076243       -1.06775558732239
C            2.96729745321033       -2.29375890541673        0.20892890032506
C            4.32276319145273       -2.51822385760713        0.02821407399089
H            4.79228716670798       -0.79761087814554       -2.83311295551814
H            1.21236784029436       -1.34399544933450       -0.55968288623474
H            6.02569877725323       -2.13463609086174       -1.20844418082718
H            2.45967151455495       -2.70727588548595        1.06859834878046
H            4.87552389877925       -3.11008531199604        0.74301988090393
C            2.93825513535480        0.32780105765430       -4.39926991472802
H            3.57369599978661       -0.53536812839065       -4.60867780654195
H            2.27167705909437        0.47455021333348       -5.25457861281545
C            3.77567699770279        1.58382253219533       -4.18726361849778
H            4.41173964793545        1.48590221438516       -3.30954668461125
H            3.12857400266822        2.44512172644526       -4.03464774348066
H            4.40787958733107        1.77575732331711       -5.05320993948227

          :  Hamiltonian                  GFN2-xTB          :
         :: gradient norm              0.000037870350 Eh/a0 ::
         :: HOMO-LUMO gap              3.648723944715 eV    ::
         :: SCC energy               -32.076675851571 Eh    ::
         :: -> dispersion             -0.024327588071 Eh    ::
         :: repulsion energy           0.521007225786 Eh    ::

    * Orbital Energies and Occupations

         #    Occupation            Energy/Eh            Energy/eV
      -------------------------------------------------------------
         1        2.0000           -0.6587873             -17.9265
       ...           ...                  ...                  ...
        18        2.0000           -0.4753843             -12.9359
        19        2.0000           -0.4741766             -12.9030
        20        2.0000           -0.4670965             -12.7103
        21        2.0000           -0.4610117             -12.5448
        22        2.0000           -0.4564628             -12.4210
        23        2.0000           -0.4434606             -12.0672
        24        2.0000           -0.4381979             -11.9240
        25        2.0000           -0.4239867             -11.5373
        26        2.0000           -0.4162390             -11.3264
        27        2.0000           -0.4072205             -11.0810
        28        2.0000           -0.4029207             -10.9640
        29        2.0000           -0.3995796             -10.8731
        30        2.0000           -0.3640990              -9.9076 (HOMO)
        31                         -0.2300109              -6.2589 (LUMO)
        32                         -0.2215757              -6.0294
        33                         -0.1548010              -4.2123
        34                         -0.1502156              -4.0876
        35                         -0.0931967              -2.5360
        36                          0.0038930               0.1059
        37                          0.0490055               1.3335
        38                          0.0987905               2.6882
        39                          0.1127343               3.0677
        40                          0.1210352               3.2935
        41                          0.1306311               3.5547
       ...                                ...                  ...
        64                          0.7768542              21.1393
      -------------------------------------------------------------
                  HL-Gap            0.1340881 Eh            3.6487 eV

     #   Z          covCN         q      C6AA      α(0)
     1  15 P        3.029    -0.114   165.399    23.104
     2   6 C        3.748    -0.046    21.462     6.608
     3   1 H        0.926     0.042     2.422     2.434
     4   1 H        0.926     0.040     2.450     2.448
     5   6 C        3.780    -0.096    22.347     6.734
     6   1 H        0.925     0.038     2.472     2.459
     7   1 H        0.925     0.037     2.486     2.466
     8   1 H        0.925     0.033     2.540     2.492
     9   6 C        2.915     0.012    27.743     8.637
    10   6 C        2.956    -0.033    28.820     8.805
    11   6 C        3.032    -0.030    28.719     8.790
    12   6 C        2.920    -0.032    28.787     8.798
    13   6 C        2.918    -0.030    28.749     8.793
    14   6 C        2.920    -0.031    28.775     8.797
    15   1 H        0.926     0.036     2.506     2.475
    16   1 H        0.925     0.034     2.524     2.484
    17   1 H        0.926     0.027     2.629     2.535
    18   1 H        0.926     0.029     2.607     2.525
    19   1 H        0.926     0.028     2.617     2.530
    20   6 C        3.748    -0.046    21.456     6.607
    21   1 H        0.925     0.046     2.368     2.407
    22   1 H        0.926     0.040     2.446     2.446
    23   6 C        3.821    -0.098    22.342     6.727
    24   1 H        0.925     0.039     2.465     2.455
    25   1 H        0.925     0.041     2.434     2.440
    26   1 H        0.925     0.031     2.569     2.507

Wiberg/Mayer (AO) data.
largest (>0.10) Wiberg bond orders for each atom

     #   Z sym  total        # sym  WBO       # sym  WBO       # sym  WBO
 ---------------------------------------------------------------------------
     1  15 P    3.374 --    20 C    1.030     9 C    1.018     2 C    1.012
     2   6 C    3.994 --     1 P    1.012     5 C    1.012     4 H    0.957
                             3 H    0.956
     3   1 H    0.998 --     2 C    0.956
     4   1 H    0.998 --     2 C    0.957
     5   6 C    3.997 --     2 C    1.012     7 H    0.985     6 H    0.983
                             8 H    0.983
     6   1 H    0.999 --     5 C    0.983
     7   1 H    0.999 --     5 C    0.985
     8   1 H    0.999 --     5 C    0.983
     9   6 C    3.982 --    10 C    1.404    11 C    1.389     1 P    1.018
                            14 C    0.106
    10   6 C    3.993 --    12 C    1.439     9 C    1.404    15 H    0.961
                            13 C    0.107
    11   6 C    3.992 --    13 C    1.457     9 C    1.389    16 H    0.962
                            12 C    0.110
    12   6 C    3.993 --    14 C    1.442    10 C    1.439    17 H    0.970
                            11 C    0.110
    13   6 C    3.991 --    11 C    1.457    14 C    1.428    18 H    0.970
                            10 C    0.107
    14   6 C    3.992 --    12 C    1.442    13 C    1.428    19 H    0.971
                             9 C    0.106
    15   1 H    0.999 --    10 C    0.961
    16   1 H    0.999 --    11 C    0.962
    17   1 H    0.999 --    12 C    0.970
    18   1 H    0.999 --    13 C    0.970
    19   1 H    0.998 --    14 C    0.971
    20   6 C    3.995 --     1 P    1.030    23 C    1.016    22 H    0.956
                            21 H    0.949
    21   1 H    0.998 --    20 C    0.949
    22   1 H    0.998 --    20 C    0.956
    23   6 C    3.997 --    20 C    1.016    25 H    0.985    26 H    0.985
                            24 H    0.983
    24   1 H    0.998 --    23 C    0.983
    25   1 H    0.998 --    23 C    0.985
    26   1 H    0.999 --    23 C    0.985
 ---------------------------------------------------------------------------

molecular dipole:
                 x           y           z       tot (Debye)
 q only:        0.060      -0.163      -0.267
   full:        0.242      -0.462      -0.393       1.661

 projected vibrational frequencies (cm⁻¹)
eigval :       -0.00    -0.00    -0.00    -0.00     0.00     0.00
eigval :       24.88    64.79    85.88   113.55   161.61   170.80
eigval :      201.43   222.27   248.38   263.46   313.80   361.55
eigval :      366.46   392.52   473.51   585.87   648.59   659.34
eigval :      679.12   690.13   736.73   760.56   769.47   872.80
eigval :      896.00   925.82   931.59   967.52   982.41   995.11
eigval :     1013.63  1017.26  1063.78  1077.66  1084.92  1115.16
eigval :     1123.45  1181.76  1203.85  1222.88  1230.71  1250.65
eigval :     1268.35  1280.33  1317.23  1407.88  1412.84  1421.39
eigval :     1449.00  1451.52  1461.68  1496.50  1499.46  1505.06
eigval :     1506.30  1578.06  1589.28  2936.18  2941.36  2951.05
eigval :     2955.74  3011.71  3012.26  3023.64  3025.48  3034.20
eigval :     3041.13  3055.06  3067.54  3074.37  3086.76  3093.72

   temp. (K)  partition function   enthalpy   heat capacity  entropy
                                   cal/mol     cal/K/mol   cal/K/mol   J/K/mol
 298.15  VIB  0.142E+05             6117.708     39.487     37.303
         ROT  0.115E+07              888.752      2.981     30.721
         INT  0.164E+11             7006.461     42.468     68.024
         TR   0.207E+28             1481.254      4.968     41.214
         TOT                        8487.7147    47.4363   109.2378   457.0511

       T/K    H(0)-H(T)+PV         H(T)/Eh          T*S/Eh         G(T)/Eh
   ------------------------------------------------------------------------
    298.15    0.135260E-01    0.232473E+00    0.519024E-01    0.180571E+00
   ------------------------------------------------------------------------

         :::::::::::::::::::::::::::::::::::::::::::::::::::::
         ::                  THERMODYNAMIC                  ::
         :::::::::::::::::::::::::::::::::::::::::::::::::::::
         :: total free energy         -31.375097844018 Eh   ::
         ::.................................................::
         :: total energy              -31.555668625786 Eh   ::
         :: zero point energy           0.218947168736 Eh   ::
         :: G(RRHO) w/o ZPVE           -0.038376386968 Eh   ::
         :: G(RRHO) contrib.            0.180570781767 Eh   ::
         :::::::::::::::::::::::::::::::::::::::::::::::::::::

           -------------------------------------------------
          | TOTAL ENERGY              -31.555668625786 Eh   |
          | TOTAL ENTHALPY            -31.323195422734 Eh   |
          | TOTAL FREE ENERGY         -31.375097844018 Eh   |
          | GRADIENT NORM               0.000037869361 Eh/α |
          | HOMO-LUMO GAP               3.648723977871 eV   |
           -------------------------------------------------

 * finished run on 2025/07/14 at 11:36:01.963
