   * xtb version 6.7.0 (08769fc) compiled by 'albert@albert-system' on 2024-03-04

   ID    Z sym.   atoms
    1   15 P      1
    2    6 C      2, 5, 9-14, 20, 23
    3    1 H      3, 4, 6-8, 15-19, 21, 22, 24-26

          program call               : /home/minenky/programs/xtb/xtb-dist/bin/xtb m1_00_PEt2Ph-PBE0-D3-TZ-uniMM_9.xyz --charge 0 --T --ohess extreme --cycles 5000 --acc 0.01 --iterations 5000
          :  Hamiltonian                  GFN2-xTB          :
 * total energy  :   -31.5524756 Eh     change       -0.2131628E-13 Eh
 * total energy  :   -31.5546511 Eh     change       -0.2175585E-02 Eh
 * total energy  :   -31.5551348 Eh     change       -0.4837077E-03 Eh
 * total energy  :   -31.5553148 Eh     change       -0.1799728E-03 Eh
 * total energy  :   -31.5554460 Eh     change       -0.1311928E-03 Eh
 * total energy  :   -31.5555382 Eh     change       -0.9218216E-04 Eh
 * total energy  :   -31.5556049 Eh     change       -0.6666977E-04 Eh
 * total energy  :   -31.5556460 Eh     change       -0.4108850E-04 Eh
 * total energy  :   -31.5556693 Eh     change       -0.2336695E-04 Eh
 * total energy  :   -31.5556939 Eh     change       -0.2462127E-04 Eh
 * total energy  :   -31.5559252 Eh     change       -0.2271269E-06 Eh
 * total energy  :   -31.5559254 Eh     change       -0.2126878E-06 Eh
 * total energy  :   -31.5559256 Eh     change       -0.2027843E-06 Eh
 * total energy  :   -31.5559258 Eh     change       -0.1907909E-06 Eh
 * total energy  :   -31.5559260 Eh     change       -0.1832161E-06 Eh
 * total energy  :   -31.5559262 Eh     change       -0.1739696E-06 Eh
 * total energy  :   -31.5559263 Eh     change       -0.1684133E-06 Eh
 * total energy  :   -31.5559265 Eh     change       -0.1613909E-06 Eh
 * total energy  :   -31.5559265 Eh     change       -0.1459242E-08 Eh
   *** GEOMETRY OPTIMIZATION CONVERGED AFTER 122 ITERATIONS ***

 final structure:
================
26
 xtb: 6.7.0 (08769fc)
P            1.64416216896764       -0.28594298068743       -2.86826931136942
C            3.28844673802586       -0.78483828753982       -2.14463238438755
H            4.09158617584673       -0.15227281772019       -2.52963905119866
H            3.20982975325708       -0.62530135308163       -1.06513739803401
C            3.58297302967679       -2.25580058445406       -2.40999688082368
H            3.73475174578882       -2.43972981712430       -3.47132001374767
H            2.75445245008585       -2.87555844416041       -2.07194380058700
H            4.48246305028000       -2.56515095736074       -1.87971981204961
C            1.71831495298559        1.53925145157193       -2.69311668395570
C            0.74623595861306        2.26831448414642       -3.37599023718562
C            2.60525882283475        2.22111014050829       -1.86863331378940
C            0.69162488367126        3.64466009516751       -3.27748279860346
C            2.54762755719763        3.60076044798513       -1.76715516569934
C            1.59900287107157        4.31731250420070       -2.47490606059517
H            0.02598125631675        1.74359338195364       -3.98915557562276
H            3.34823380396398        1.68438750861336       -1.29875199312027
H           -0.06231657485677        4.19523278929324       -3.82172650299541
H            3.24977376449990        4.11833442129289       -1.12889595027141
H            1.56011548343587        5.39380129964022       -2.39498449695377
C            2.02172394935412       -0.39232679143089       -4.69646123102674
H            2.08130639667624       -1.45622934587036       -4.94182488287026
H            1.13697177299032       -0.00002376941549       -5.20541873592377
C            3.26387140832942        0.34040168672024       -5.18363284759667
H            4.17176874782677       -0.11919249799966       -4.80079939118637
H            3.24374932408459        1.38310317294716       -4.87082985120027
H            3.30680250907579        0.31030826280416       -6.27151162920583

          :  Hamiltonian                  GFN2-xTB          :
         :: gradient norm              0.000031166056 Eh/a0 ::
         :: HOMO-LUMO gap              3.638188053120 eV    ::
         :: SCC energy               -32.077063956637 Eh    ::
         :: -> dispersion             -0.024356577289 Eh    ::
         :: repulsion energy           0.521137449895 Eh    ::

    * Orbital Energies and Occupations

         #    Occupation            Energy/Eh            Energy/eV
      -------------------------------------------------------------
         1        2.0000           -0.6587463             -17.9254
       ...           ...                  ...                  ...
        18        2.0000           -0.4770705             -12.9817
        19        2.0000           -0.4740235             -12.8988
        20        2.0000           -0.4689951             -12.7620
        21        2.0000           -0.4616153             -12.5612
        22        2.0000           -0.4527150             -12.3190
        23        2.0000           -0.4451189             -12.1123
        24        2.0000           -0.4393340             -11.9549
        25        2.0000           -0.4246545             -11.5554
        26        2.0000           -0.4144228             -11.2770
        27        2.0000           -0.4077663             -11.0959
        28        2.0000           -0.4028304             -10.9616
        29        2.0000           -0.4006647             -10.9026
        30        2.0000           -0.3635791              -9.8935 (HOMO)
        31                         -0.2298781              -6.2553 (LUMO)
        32                         -0.2215451              -6.0285
        33                         -0.1543608              -4.2004
        34                         -0.1499708              -4.0809
        35                         -0.0933421              -2.5400
        36                          0.0102589               0.2792
        37                          0.0443806               1.2077
        38                          0.1065183               2.8985
        39                          0.1120440               3.0489
        40                          0.1164243               3.1681
        41                          0.1320897               3.5943
       ...                                ...                  ...
        64                          0.7999806              21.7686
      -------------------------------------------------------------
                  HL-Gap            0.1337010 Eh            3.6382 eV

     #   Z          covCN         q      C6AA      α(0)
     1  15 P        3.021    -0.113   165.377    23.102
     2   6 C        3.748    -0.045    21.450     6.606
     3   1 H        0.925     0.047     2.362     2.403
     4   1 H        0.926     0.041     2.441     2.443
     5   6 C        3.819    -0.097    22.332     6.725
     6   1 H        0.925     0.037     2.489     2.467
     7   1 H        0.925     0.041     2.431     2.438
     8   1 H        0.925     0.032     2.556     2.500
     9   6 C        2.915     0.010    27.790     8.645
    10   6 C        3.022    -0.030    28.726     8.792
    11   6 C        2.961    -0.033    28.832     8.807
    12   6 C        2.918    -0.030    28.753     8.793
    13   6 C        2.919    -0.031    28.768     8.796
    14   6 C        2.920    -0.031    28.776     8.797
    15   1 H        0.925     0.034     2.531     2.488
    16   1 H        0.926     0.033     2.549     2.497
    17   1 H        0.926     0.029     2.603     2.523
    18   1 H        0.926     0.028     2.617     2.530
    19   1 H        0.926     0.028     2.611     2.527
    20   6 C        3.748    -0.044    21.428     6.602
    21   1 H        0.926     0.041     2.439     2.442
    22   1 H        0.926     0.042     2.423     2.434
    23   6 C        3.780    -0.094    22.320     6.730
    24   1 H        0.925     0.038     2.479     2.462
    25   1 H        0.925     0.037     2.483     2.464
    26   1 H        0.925     0.032     2.560     2.502

Wiberg/Mayer (AO) data.
largest (>0.10) Wiberg bond orders for each atom

     #   Z sym  total        # sym  WBO       # sym  WBO       # sym  WBO
 ---------------------------------------------------------------------------
     1  15 P    3.378 --     2 C    1.028     9 C    1.019    20 C    1.014
     2   6 C    3.995 --     1 P    1.028     5 C    1.015     4 H    0.956
                             3 H    0.951
     3   1 H    0.998 --     2 C    0.951
     4   1 H    0.998 --     2 C    0.956
     5   6 C    3.996 --     2 C    1.015     8 H    0.985     7 H    0.984
                             6 H    0.984
     6   1 H    0.999 --     5 C    0.984
     7   1 H    0.998 --     5 C    0.984
     8   1 H    0.999 --     5 C    0.985
     9   6 C    3.982 --    11 C    1.402    10 C    1.390     1 P    1.019
                            14 C    0.106
    10   6 C    3.992 --    12 C    1.457     9 C    1.390    15 H    0.962
                            13 C    0.110
    11   6 C    3.993 --    13 C    1.440     9 C    1.402    16 H    0.963
                            12 C    0.107
    12   6 C    3.992 --    10 C    1.457    14 C    1.428    17 H    0.970
                            11 C    0.107
    13   6 C    3.993 --    14 C    1.441    11 C    1.440    18 H    0.970
                            10 C    0.110
    14   6 C    3.991 --    13 C    1.441    12 C    1.428    19 H    0.971
                             9 C    0.106
    15   1 H    0.999 --    10 C    0.962
    16   1 H    0.999 --    11 C    0.963
    17   1 H    0.999 --    12 C    0.970
    18   1 H    0.999 --    13 C    0.970
    19   1 H    0.998 --    14 C    0.971
    20   6 C    3.994 --     1 P    1.014    23 C    1.012    21 H    0.956
                            22 H    0.954
    21   1 H    0.998 --    20 C    0.956
    22   1 H    0.998 --    20 C    0.954
    23   6 C    3.997 --    20 C    1.012    24 H    0.984    26 H    0.983
                            25 H    0.983
    24   1 H    0.999 --    23 C    0.984
    25   1 H    0.999 --    23 C    0.983
    26   1 H    0.999 --    23 C    0.983
 ---------------------------------------------------------------------------

molecular dipole:
                 x           y           z       tot (Debye)
 q only:        0.298      -0.066      -0.168
   full:        0.588       0.129      -0.279       1.686

 projected vibrational frequencies (cm⁻¹)
eigval :       -0.00    -0.00     0.00     0.00     0.00     0.00
eigval :       27.85    69.58    80.71   127.18   129.20   199.54
eigval :      204.14   227.80   261.24   277.07   283.95   356.60
eigval :      363.06   406.97   472.80   585.92   638.49   657.12
eigval :      683.24   704.71   729.27   746.97   791.35   871.17
eigval :      894.52   925.11   931.18   968.64   974.30   998.56
eigval :     1012.29  1021.85  1065.60  1072.83  1085.79  1115.62
eigval :     1123.24  1181.86  1203.22  1225.67  1227.94  1250.93
eigval :     1266.81  1282.20  1316.98  1408.57  1410.71  1421.73
eigval :     1450.90  1454.82  1461.79  1497.37  1501.00  1504.77
eigval :     1508.55  1577.59  1589.08  2939.02  2942.47  2949.58
eigval :     2960.62  3011.29  3013.25  3023.92  3024.75  3034.27
eigval :     3039.02  3058.24  3068.34  3074.72  3087.10  3094.13

   temp. (K)  partition function   enthalpy   heat capacity  entropy
                                   cal/mol     cal/K/mol   cal/K/mol   J/K/mol
 298.15  VIB  0.120E+05             6094.747     39.513     37.092
         ROT  0.113E+07              888.752      2.981     30.681
         INT  0.135E+11             6983.499     42.494     67.773
         TR   0.207E+28             1481.254      4.968     41.214
         TOT                        8464.7534    47.4625   108.9865   455.9995

       T/K    H(0)-H(T)+PV         H(T)/Eh          T*S/Eh         G(T)/Eh
   ------------------------------------------------------------------------
    298.15    0.134894E-01    0.232532E+00    0.517830E-01    0.180749E+00
   ------------------------------------------------------------------------

         :::::::::::::::::::::::::::::::::::::::::::::::::::::
         ::                  THERMODYNAMIC                  ::
         :::::::::::::::::::::::::::::::::::::::::::::::::::::
         :: total free energy         -31.375177457953 Eh   ::
         ::.................................................::
         :: total energy              -31.555926506742 Eh   ::
         :: zero point energy           0.219042605990 Eh   ::
         :: G(RRHO) w/o ZPVE           -0.038293557201 Eh   ::
         :: G(RRHO) contrib.            0.180749048789 Eh   ::
         :::::::::::::::::::::::::::::::::::::::::::::::::::::

           -------------------------------------------------
          | TOTAL ENERGY              -31.555926506742 Eh   |
          | TOTAL ENTHALPY            -31.323394457614 Eh   |
          | TOTAL FREE ENERGY         -31.375177457953 Eh   |
          | GRADIENT NORM               0.000031166137 Eh/α |
          | HOMO-LUMO GAP               3.638188105138 eV   |
           -------------------------------------------------

 * finished run on 2025/07/14 at 11:39:11.328
