   * xtb version 6.7.0 (08769fc) compiled by 'albert@albert-system' on 2024-03-04

   ID    Z sym.   atoms
    1   15 P      1
    2    6 C      2, 5, 9-14, 20, 23
    3    1 H      3, 4, 6-8, 15-19, 21, 22, 24-26

          program call               : /home/minenky/programs/xtb/xtb-dist/bin/xtb m1_00_PEt2Ph-PBE0-D3-TZ-uniMM_21.xyz --charge 0 --T --ohess extreme --cycles 5000 --acc 0.01 --iterations 5000
          :  Hamiltonian                  GFN2-xTB          :
 * total energy  :   -31.5447545 Eh     change        0.7105427E-14 Eh
 * total energy  :   -31.5513136 Eh     change       -0.6559082E-02 Eh
 * total energy  :   -31.5525029 Eh     change       -0.1189288E-02 Eh
 * total energy  :   -31.5532769 Eh     change       -0.7740144E-03 Eh
 * total energy  :   -31.5534968 Eh     change       -0.2199475E-03 Eh
 * total energy  :   -31.5536453 Eh     change       -0.1484524E-03 Eh
 * total energy  :   -31.5537732 Eh     change       -0.1279126E-03 Eh
 * total energy  :   -31.5538989 Eh     change       -0.1256787E-03 Eh
 * total energy  :   -31.5540094 Eh     change       -0.1105228E-03 Eh
 * total energy  :   -31.5540873 Eh     change       -0.7791077E-04 Eh
 * total energy  :   -31.5546771 Eh     change       -0.3052579E-06 Eh
 * total energy  :   -31.5546774 Eh     change       -0.2594549E-06 Eh
 * total energy  :   -31.5546777 Eh     change       -0.3251489E-06 Eh
 * total energy  :   -31.5546781 Eh     change       -0.3682833E-06 Eh
 * total energy  :   -31.5546784 Eh     change       -0.2999023E-06 Eh
 * total energy  :   -31.5546786 Eh     change       -0.1874965E-06 Eh
 * total energy  :   -31.5546787 Eh     change       -0.1305241E-06 Eh
 * total energy  :   -31.5546788 Eh     change       -0.1212697E-06 Eh
 * total energy  :   -31.5546788 Eh     change       -0.2071527E-08 Eh
   *** GEOMETRY OPTIMIZATION CONVERGED AFTER 44 ITERATIONS ***

 final structure:
================
26
 xtb: 6.7.0 (08769fc)
P            1.49989391894656       -0.25318183186838       -2.73271788097401
C            2.93285883458705       -0.37163193381679       -3.92891744743645
H            3.67490456035549       -1.07678410467369       -3.54242512752734
H            2.52107972587771       -0.78976034835919       -4.85243695571693
C            3.56908135099976        0.98115587485152       -4.21389309301951
H            4.04670340202666        1.38122102961588       -3.32209097181769
H            2.81672980224900        1.69249436830060       -4.54917845780985
H            4.32588641468734        0.88843262261312       -4.99151928283136
C            1.23292956721581       -2.06686714227372       -2.57062677071809
C            2.14294685917834       -2.93471457669582       -1.97760198241930
C            0.05063795553735       -2.58174980314219       -3.09025762952402
C            1.87230215848929       -4.28912503224560       -1.90922308396989
C           -0.21899254040998       -3.93689458174478       -3.02459084675820
C            0.69302862549444       -4.79350738384485       -2.43239629913642
H            3.06691134991110       -2.55692009740144       -1.56383706671179
H           -0.65916358936259       -1.90536207386660       -3.54627813026389
H            2.58567962183075       -4.95597047958128       -1.44572666706195
H           -1.14128294572353       -4.32511280502683       -3.43221430788691
H            0.48615617027212       -5.85231889065828       -2.37627239013196
C            2.43069228912382        0.07673860971653       -1.14083464438744
H            1.98318921475291       -0.55168096574383       -0.36602643346371
H            3.48303800537137       -0.19917977362140       -1.24879845791998
C            2.30737264900719        1.54144327163979       -0.73535115398021
H            1.26094833124531        1.80770882780252       -0.60211413165180
H            2.72538501323092        2.19520153583944       -1.49770844985773
H            2.83226825510640        1.72502668418597        0.20113566297627

          :  Hamiltonian                  GFN2-xTB          :
         :: gradient norm              0.000030643159 Eh/a0 ::
         :: HOMO-LUMO gap              3.658464604978 eV    ::
         :: SCC energy               -32.074848389009 Eh    ::
         :: -> dispersion             -0.023352008389 Eh    ::
         :: repulsion energy           0.520169560677 Eh    ::

    * Orbital Energies and Occupations

         #    Occupation            Energy/Eh            Energy/eV
      -------------------------------------------------------------
         1        2.0000           -0.6576847             -17.8965
       ...           ...                  ...                  ...
        18        2.0000           -0.4779128             -13.0047
        19        2.0000           -0.4773972             -12.9906
        20        2.0000           -0.4630605             -12.6005
        21        2.0000           -0.4599714             -12.5165
        22        2.0000           -0.4522936             -12.3075
        23        2.0000           -0.4460063             -12.1364
        24        2.0000           -0.4392745             -11.9533
        25        2.0000           -0.4231084             -11.5134
        26        2.0000           -0.4165994             -11.3362
        27        2.0000           -0.4045312             -11.0079
        28        2.0000           -0.4039688             -10.9926
        29        2.0000           -0.3967019             -10.7948
        30        2.0000           -0.3669461              -9.9851 (HOMO)
        31                         -0.2325000              -6.3266 (LUMO)
        32                         -0.2227867              -6.0623
        33                         -0.1602334              -4.3602
        34                         -0.1501694              -4.0863
        35                         -0.0927985              -2.5252
        36                         -0.0067609              -0.1840
        37                          0.0722587               1.9663
        38                          0.0833921               2.2692
        39                          0.1007181               2.7407
        40                          0.1342454               3.6530
        41                          0.1402118               3.8154
       ...                                ...                  ...
        64                          0.7800230              21.2255
      -------------------------------------------------------------
                  HL-Gap            0.1344461 Eh            3.6585 eV

     #   Z          covCN         q      C6AA      α(0)
     1  15 P        3.036    -0.109   165.200    23.090
     2   6 C        3.747    -0.045    21.453     6.606
     3   1 H        0.925     0.042     2.422     2.434
     4   1 H        0.926     0.038     2.474     2.460
     5   6 C        3.805    -0.096    22.328     6.727
     6   1 H        0.925     0.038     2.476     2.461
     7   1 H        0.925     0.041     2.435     2.440
     8   1 H        0.925     0.032     2.553     2.499
     9   6 C        2.916     0.004    27.936     8.667
    10   6 C        2.963    -0.031    28.761     8.797
    11   6 C        3.013    -0.031    28.749     8.795
    12   6 C        2.919    -0.031    28.769     8.796
    13   6 C        2.918    -0.029    28.736     8.791
    14   6 C        2.920    -0.029    28.734     8.790
    15   1 H        0.926     0.033     2.548     2.496
    16   1 H        0.925     0.039     2.464     2.455
    17   1 H        0.926     0.029     2.604     2.524
    18   1 H        0.926     0.031     2.576     2.510
    19   1 H        0.926     0.030     2.591     2.517
    20   6 C        3.747    -0.047    21.486     6.612
    21   1 H        0.925     0.040     2.448     2.447
    22   1 H        0.925     0.041     2.433     2.439
    23   6 C        3.818    -0.098    22.358     6.730
    24   1 H        0.925     0.041     2.435     2.440
    25   1 H        0.925     0.038     2.472     2.459
    26   1 H        0.925     0.031     2.579     2.511

Wiberg/Mayer (AO) data.
largest (>0.10) Wiberg bond orders for each atom

     #   Z sym  total        # sym  WBO       # sym  WBO       # sym  WBO
 ---------------------------------------------------------------------------
     1  15 P    3.335 --    20 C    1.025     2 C    1.020     9 C    1.007
     2   6 C    3.995 --     1 P    1.020     5 C    1.017     4 H    0.959
                             3 H    0.952
     3   1 H    0.998 --     2 C    0.952
     4   1 H    0.998 --     2 C    0.959
     5   6 C    3.996 --     2 C    1.017     7 H    0.985     8 H    0.984
                             6 H    0.983
     6   1 H    0.999 --     5 C    0.983
     7   1 H    0.998 --     5 C    0.985
     8   1 H    0.998 --     5 C    0.984
     9   6 C    3.983 --    11 C    1.409    10 C    1.399     1 P    1.007
                            14 C    0.108
    10   6 C    3.992 --    12 C    1.449     9 C    1.399    15 H    0.963
                            13 C    0.110
    11   6 C    3.991 --    13 C    1.443     9 C    1.409    16 H    0.965
                            12 C    0.109
    12   6 C    3.993 --    10 C    1.449    14 C    1.433    17 H    0.970
                            11 C    0.109
    13   6 C    3.992 --    11 C    1.443    14 C    1.440    18 H    0.970
                            10 C    0.110
    14   6 C    3.990 --    13 C    1.440    12 C    1.433    19 H    0.971
                             9 C    0.108
    15   1 H    0.999 --    10 C    0.963
    16   1 H    0.998 --    11 C    0.965
    17   1 H    0.999 --    12 C    0.970
    18   1 H    0.999 --    13 C    0.970
    19   1 H    0.998 --    14 C    0.971
    20   6 C    3.995 --     1 P    1.025    23 C    1.016    21 H    0.959
                            22 H    0.954
    21   1 H    0.998 --    20 C    0.959
    22   1 H    0.998 --    20 C    0.954
    23   6 C    3.996 --    20 C    1.016    24 H    0.985    26 H    0.985
                            25 H    0.984
    24   1 H    0.998 --    23 C    0.985
    25   1 H    0.999 --    23 C    0.984
    26   1 H    0.999 --    23 C    0.985
 ---------------------------------------------------------------------------

molecular dipole:
                 x           y           z       tot (Debye)
 q only:        0.262      -0.011       0.031
   full:        0.571      -0.263       0.119       1.626

 projected vibrational frequencies (cm⁻¹)
eigval :       -0.00    -0.00     0.00     0.00     0.00     0.00
eigval :       31.34    72.74    79.55    98.33   120.43   177.31
eigval :      204.44   217.58   244.63   265.41   271.89   326.08
eigval :      363.08   441.80   455.71   585.94   655.83   660.33
eigval :      686.35   702.67   734.07   741.07   789.05   875.13
eigval :      899.30   927.05   932.55   969.46   971.38  1010.18
eigval :     1014.63  1018.11  1071.13  1073.68  1083.07  1118.31
eigval :     1120.49  1181.60  1198.53  1222.54  1231.54  1252.17
eigval :     1255.34  1278.14  1315.32  1408.10  1411.13  1423.63
eigval :     1444.39  1451.26  1457.47  1494.78  1497.77  1502.87
eigval :     1507.76  1579.71  1589.36  2925.76  2935.81  2945.71
eigval :     2949.86  3011.79  3012.68  3025.88  3028.36  3032.96
eigval :     3036.35  3063.84  3065.74  3074.06  3079.01  3088.23

   temp. (K)  partition function   enthalpy   heat capacity  entropy
                                   cal/mol     cal/K/mol   cal/K/mol   J/K/mol
 298.15  VIB  0.161E+05             6200.429     39.652     38.215
         ROT  0.124E+07              888.752      2.981     30.865
         INT  0.200E+11             7089.182     42.633     69.080
         TR   0.207E+28             1481.254      4.968     41.214
         TOT                        8570.4355    47.6008   110.2938   461.4695

       T/K    H(0)-H(T)+PV         H(T)/Eh          T*S/Eh         G(T)/Eh
   ------------------------------------------------------------------------
    298.15    0.136579E-01    0.232338E+00    0.524042E-01    0.179934E+00
   ------------------------------------------------------------------------

         :::::::::::::::::::::::::::::::::::::::::::::::::::::
         ::                  THERMODYNAMIC                  ::
         :::::::::::::::::::::::::::::::::::::::::::::::::::::
         :: total free energy         -31.374744885184 Eh   ::
         ::.................................................::
         :: total energy              -31.554678828331 Eh   ::
         :: zero point energy           0.218680251743 Eh   ::
         :: G(RRHO) w/o ZPVE           -0.038746308596 Eh   ::
         :: G(RRHO) contrib.            0.179933943147 Eh   ::
         :::::::::::::::::::::::::::::::::::::::::::::::::::::

           -------------------------------------------------
          | TOTAL ENERGY              -31.554678828331 Eh   |
          | TOTAL ENTHALPY            -31.322340718257 Eh   |
          | TOTAL FREE ENERGY         -31.374744885184 Eh   |
          | GRADIENT NORM               0.000030644006 Eh/α |
          | HOMO-LUMO GAP               3.658464542949 eV   |
           -------------------------------------------------

 * finished run on 2025/07/14 at 11:28:17.291
