   * xtb version 6.7.0 (08769fc) compiled by 'albert@albert-system' on 2024-03-04

   ID    Z sym.   atoms
    1   15 P      1
    2    6 C      2, 5, 9-14, 20, 23
    3    1 H      3, 4, 6-8, 15-19, 21, 22, 24-26

          program call               : /home/minenky/programs/xtb/xtb-dist/bin/xtb m1_00_PEt2Ph-PBE0-D3-TZ-uniMM_47.xyz --charge 0 --T --ohess extreme --cycles 5000 --acc 0.01 --iterations 5000
          :  Hamiltonian                  GFN2-xTB          :
 * total energy  :   -31.5404714 Eh     change       -0.6394885E-13 Eh
 * total energy  :   -31.5480409 Eh     change       -0.7569530E-02 Eh
 * total energy  :   -31.5504156 Eh     change       -0.2374646E-02 Eh
 * total energy  :   -31.5522920 Eh     change       -0.1876451E-02 Eh
 * total energy  :   -31.5532277 Eh     change       -0.9356763E-03 Eh
 * total energy  :   -31.5537413 Eh     change       -0.5136340E-03 Eh
 * total energy  :   -31.5539439 Eh     change       -0.2025839E-03 Eh
 * total energy  :   -31.5540069 Eh     change       -0.6300643E-04 Eh
 * total energy  :   -31.5540511 Eh     change       -0.4416957E-04 Eh
 * total energy  :   -31.5540824 Eh     change       -0.3132117E-04 Eh
 * total energy  :   -31.5542492 Eh     change       -0.7893956E-08 Eh
 * total energy  :   -31.5542493 Eh     change       -0.5146345E-07 Eh
 * total energy  :   -31.5542493 Eh     change       -0.6022237E-07 Eh
 * total energy  :   -31.5542494 Eh     change       -0.1607452E-07 Eh
 * total energy  :   -31.5542494 Eh     change       -0.4809717E-07 Eh
 * total energy  :   -31.5542495 Eh     change       -0.7107580E-07 Eh
 * total energy  :   -31.5542495 Eh     change       -0.3744109E-08 Eh
 * total energy  :   -31.5542495 Eh     change       -0.5160219E-07 Eh
 * total energy  :   -31.5542496 Eh     change       -0.4338098E-07 Eh
   *** GEOMETRY OPTIMIZATION CONVERGED AFTER 35 ITERATIONS ***

 final structure:
================
26
 xtb: 6.7.0 (08769fc)
P            1.64863645779615       -0.42651165865832       -2.92728798196791
C            1.89728004006318        1.21129429778339       -3.80912538504029
H            2.81892842834008        1.16807930589116       -4.39600876801094
H            1.06277820809210        1.34742682727756       -4.50074690261529
C            1.93620675604200        2.37660160492991       -2.82745390783096
H            2.74534219372360        2.26052743291364       -2.11013729542659
H            1.00224944635485        2.43239544566878       -2.27215816288299
H            2.07913787718004        3.31706964339950       -3.35784947798297
C            0.86893214167006       -1.33050600659606       -4.32223303325210
C            1.41349206008660       -2.42956231277742       -4.97464125448999
C           -0.41450049430393       -0.91408226211835       -4.67344529027494
C            0.70779638499671       -3.06554226874701       -5.98221270156423
C           -1.11712229230936       -1.54699640835755       -5.67940060606198
C           -0.55299039394678       -2.62485226616534       -6.34281038542563
H            2.39052781761756       -2.80075839058954       -4.70596036110784
H           -0.86187138435320       -0.08389832035037       -4.14216668835818
H            1.14795232523310       -3.91361444184749       -6.48746096248328
H           -2.10793043485663       -1.20610296090291       -5.94365390881262
H           -1.09822237766128       -3.12387399235393       -7.13045647252273
C            3.39021055288927       -1.08853493456873       -3.01225020220162
H            3.34147588138828       -2.13922783872594       -2.71179199714066
H            3.76213690218890       -1.03329173575669       -4.03992178815619
C            4.32523541291708       -0.34340503676161       -2.06829714967424
H            3.92099334615860       -0.33785360468881       -1.05774447327351
H            4.46321229375115        0.68654281836679       -2.38946554770651
H            5.30229285094185       -0.82398593626490       -2.04514429573605

          :  Hamiltonian                  GFN2-xTB          :
         :: gradient norm              0.000029475039 Eh/a0 ::
         :: HOMO-LUMO gap              3.654054222302 eV    ::
         :: SCC energy               -32.074667818943 Eh    ::
         :: -> dispersion             -0.023403224986 Eh    ::
         :: repulsion energy           0.520418235589 Eh    ::

    * Orbital Energies and Occupations

         #    Occupation            Energy/Eh            Energy/eV
      -------------------------------------------------------------
         1        2.0000           -0.6583587             -17.9149
       ...           ...                  ...                  ...
        18        2.0000           -0.4771274             -12.9833
        19        2.0000           -0.4763142             -12.9612
        20        2.0000           -0.4636413             -12.6163
        21        2.0000           -0.4604391             -12.5292
        22        2.0000           -0.4528487             -12.3226
        23        2.0000           -0.4462426             -12.1429
        24        2.0000           -0.4381236             -11.9220
        25        2.0000           -0.4239120             -11.5352
        26        2.0000           -0.4145753             -11.2812
        27        2.0000           -0.4075047             -11.0888
        28        2.0000           -0.4027233             -10.9587
        29        2.0000           -0.3997556             -10.8779
        30        2.0000           -0.3644628              -9.9175 (HOMO)
        31                         -0.2301788              -6.2635 (LUMO)
        32                         -0.2216076              -6.0303
        33                         -0.1591041              -4.3294
        34                         -0.1503661              -4.0917
        35                         -0.0941845              -2.5629
        36                          0.0040861               0.1112
        37                          0.0597821               1.6268
        38                          0.0901623               2.4534
        39                          0.1085623               2.9541
        40                          0.1181824               3.2159
        41                          0.1399838               3.8092
       ...                                ...                  ...
        64                          0.7902423              21.5036
      -------------------------------------------------------------
                  HL-Gap            0.1342840 Eh            3.6541 eV

     #   Z          covCN         q      C6AA      α(0)
     1  15 P        3.045    -0.104   164.951    23.072
     2   6 C        3.747    -0.048    21.496     6.613
     3   1 H        0.925     0.042     2.422     2.434
     4   1 H        0.925     0.042     2.423     2.434
     5   6 C        3.809    -0.098    22.367     6.732
     6   1 H        0.925     0.039     2.463     2.454
     7   1 H        0.925     0.041     2.440     2.443
     8   1 H        0.925     0.031     2.570     2.507
     9   6 C        2.915     0.005    27.912     8.663
    10   6 C        2.957    -0.034    28.836     8.808
    11   6 C        3.028    -0.031    28.746     8.794
    12   6 C        2.920    -0.030    28.756     8.794
    13   6 C        2.918    -0.030    28.749     8.793
    14   6 C        2.920    -0.031    28.767     8.795
    15   1 H        0.926     0.033     2.551     2.497
    16   1 H        0.925     0.035     2.517     2.481
    17   1 H        0.926     0.029     2.608     2.525
    18   1 H        0.926     0.029     2.596     2.519
    19   1 H        0.926     0.029     2.601     2.522
    20   6 C        3.748    -0.046    21.472     6.609
    21   1 H        0.926     0.041     2.439     2.442
    22   1 H        0.925     0.043     2.410     2.428
    23   6 C        3.813    -0.096    22.329     6.726
    24   1 H        0.925     0.041     2.433     2.439
    25   1 H        0.925     0.038     2.477     2.461
    26   1 H        0.925     0.032     2.557     2.501

Wiberg/Mayer (AO) data.
largest (>0.10) Wiberg bond orders for each atom

     #   Z sym  total        # sym  WBO       # sym  WBO       # sym  WBO
 ---------------------------------------------------------------------------
     1  15 P    3.361 --    20 C    1.030     9 C    1.018     2 C    1.009
     2   6 C    3.996 --     5 C    1.018     1 P    1.009     4 H    0.958
                             3 H    0.955
     3   1 H    0.998 --     2 C    0.955
     4   1 H    0.998 --     2 C    0.958
     5   6 C    3.996 --     2 C    1.018     7 H    0.986     8 H    0.984
                             6 H    0.983
     6   1 H    0.998 --     5 C    0.983
     7   1 H    0.998 --     5 C    0.986
     8   1 H    0.998 --     5 C    0.984
     9   6 C    3.981 --    10 C    1.404    11 C    1.389     1 P    1.018
                            14 C    0.106
    10   6 C    3.992 --    12 C    1.439     9 C    1.404    15 H    0.964
                            13 C    0.107
    11   6 C    3.992 --    13 C    1.457     9 C    1.389    16 H    0.961
                            12 C    0.110
    12   6 C    3.992 --    14 C    1.442    10 C    1.439    17 H    0.970
                            11 C    0.110
    13   6 C    3.992 --    11 C    1.457    14 C    1.427    18 H    0.970
                            10 C    0.107
    14   6 C    3.991 --    12 C    1.442    13 C    1.427    19 H    0.971
                             9 C    0.106
    15   1 H    0.999 --    10 C    0.964
    16   1 H    0.999 --    11 C    0.961
    17   1 H    0.999 --    12 C    0.970
    18   1 H    0.999 --    13 C    0.970
    19   1 H    0.998 --    14 C    0.971
    20   6 C    3.995 --     1 P    1.030    23 C    1.015    21 H    0.956
                            22 H    0.952
    21   1 H    0.998 --    20 C    0.956
    22   1 H    0.998 --    20 C    0.952
    23   6 C    3.996 --    20 C    1.015    24 H    0.984    26 H    0.984
                            25 H    0.983
    24   1 H    0.998 --    23 C    0.984
    25   1 H    0.998 --    23 C    0.983
    26   1 H    0.999 --    23 C    0.984
 ---------------------------------------------------------------------------

molecular dipole:
                 x           y           z       tot (Debye)
 q only:        0.250       0.149      -0.110
   full:        0.418       0.134      -0.448       1.594

 projected vibrational frequencies (cm⁻¹)
eigval :       -0.00    -0.00    -0.00     0.00     0.00     0.00
eigval :       34.50    69.67    81.56   119.75   135.98   179.33
eigval :      210.83   222.23   246.19   272.93   277.18   319.33
eigval :      363.28   417.96   473.96   585.94   648.71   663.85
eigval :      684.37   705.26   735.29   743.16   796.09   872.15
eigval :      896.23   926.00   931.55   968.81   972.73  1009.30
eigval :     1014.82  1019.55  1070.16  1073.29  1085.76  1115.36
eigval :     1123.02  1181.71  1203.37  1224.31  1231.10  1251.10
eigval :     1256.94  1281.78  1317.53  1408.99  1411.23  1421.58
eigval :     1443.21  1453.01  1461.52  1493.95  1498.25  1503.16
eigval :     1509.39  1577.76  1589.32  2923.84  2936.90  2944.32
eigval :     2961.22  3012.14  3013.03  3025.84  3028.86  3035.23
eigval :     3038.46  3050.80  3068.45  3074.36  3087.19  3095.07

   temp. (K)  partition function   enthalpy   heat capacity  entropy
                                   cal/mol     cal/K/mol   cal/K/mol   J/K/mol
 298.15  VIB  0.112E+05             6137.995     39.668     37.469
         ROT  0.124E+07              888.752      2.981     30.864
         INT  0.139E+11             7026.748     42.649     68.334
         TR   0.207E+28             1481.254      4.968     41.214
         TOT                        8508.0017    47.6169   109.5476   458.3471

       T/K    H(0)-H(T)+PV         H(T)/Eh          T*S/Eh         G(T)/Eh
   ------------------------------------------------------------------------
    298.15    0.135584E-01    0.232447E+00    0.520496E-01    0.180397E+00
   ------------------------------------------------------------------------

         :::::::::::::::::::::::::::::::::::::::::::::::::::::
         ::                  THERMODYNAMIC                  ::
         :::::::::::::::::::::::::::::::::::::::::::::::::::::
         :: total free energy         -31.373852235036 Eh   ::
         ::.................................................::
         :: total energy              -31.554249583354 Eh   ::
         :: zero point energy           0.218888579687 Eh   ::
         :: G(RRHO) w/o ZPVE           -0.038491231369 Eh   ::
         :: G(RRHO) contrib.            0.180397348318 Eh   ::
         :::::::::::::::::::::::::::::::::::::::::::::::::::::

           -------------------------------------------------
          | TOTAL ENERGY              -31.554249583354 Eh   |
          | TOTAL ENTHALPY            -31.321802639857 Eh   |
          | TOTAL FREE ENERGY         -31.373852235036 Eh   |
          | GRADIENT NORM               0.000029474298 Eh/α |
          | HOMO-LUMO GAP               3.654054185134 eV   |
           -------------------------------------------------

 * finished run on 2025/07/14 at 11:33:34.525
