   * xtb version 6.7.0 (08769fc) compiled by 'albert@albert-system' on 2024-03-04

   ID    Z sym.   atoms
    1   15 P      1
    2    6 C      2, 5, 9-14, 20, 23
    3    1 H      3, 4, 6-8, 15-19, 21, 22, 24-26

          program call               : /home/minenky/programs/xtb/xtb-dist/bin/xtb m1_00_PEt2Ph-PBE0-D3-TZ-uniMM_30.xyz --charge 0 --T --ohess extreme --cycles 5000 --acc 0.01 --iterations 5000
          :  Hamiltonian                  GFN2-xTB          :
 * total energy  :   -31.5444040 Eh     change        0.2842171E-13 Eh
 * total energy  :   -31.5479350 Eh     change       -0.3530951E-02 Eh
 * total energy  :   -31.5486356 Eh     change       -0.7006019E-03 Eh
 * total energy  :   -31.5489054 Eh     change       -0.2698576E-03 Eh
 * total energy  :   -31.5490486 Eh     change       -0.1432233E-03 Eh
 * total energy  :   -31.5492420 Eh     change       -0.1933607E-03 Eh
 * total energy  :   -31.5494814 Eh     change       -0.2394458E-03 Eh
 * total energy  :   -31.5497365 Eh     change       -0.2550488E-03 Eh
 * total energy  :   -31.5500512 Eh     change       -0.3146714E-03 Eh
 * total energy  :   -31.5504398 Eh     change       -0.3886031E-03 Eh
 * total energy  :   -31.5570219 Eh     change       -0.2259899E-06 Eh
 * total energy  :   -31.5570219 Eh     change       -0.6543306E-07 Eh
 * total energy  :   -31.5570220 Eh     change       -0.3674769E-07 Eh
 * total energy  :   -31.5570220 Eh     change       -0.1762846E-07 Eh
 * total energy  :   -31.5570220 Eh     change       -0.1933916E-08 Eh
 * total energy  :   -31.5570220 Eh     change        0.2737654E-07 Eh
 * total energy  :   -31.5570219 Eh     change        0.6490879E-07 Eh
 * total energy  :   -31.5570218 Eh     change        0.9731407E-07 Eh
 * total energy  :   -31.5570218 Eh     change       -0.5452719E-08 Eh
   *** GEOMETRY OPTIMIZATION CONVERGED AFTER 152 ITERATIONS ***

 final structure:
================
26
 xtb: 6.7.0 (08769fc)
P            1.34975154308468        0.13410187817559       -2.88371395090792
C            1.04538410507285        1.15255770822103       -4.41801295832093
H            0.62457998456462        2.10604563680111       -4.08565401685948
H            1.98749052810472        1.35874615492532       -4.93269231487735
C            0.07048846730847        0.44906122118280       -5.35196144717670
H           -0.86836499670867        0.24757047248947       -4.83985041060977
H            0.48427197521993       -0.50048702353916       -5.68837325148838
H           -0.13773526518261        1.06435094878362       -6.22579168022980
C            2.28264807986385       -1.26317070380627       -3.63829447920483
C            3.37875573488984       -1.10898153538510       -4.47910800502530
C            1.84283197926560       -2.54671110318121       -3.33430827959670
C            4.01876922648551       -2.21705220970712       -5.00264863991406
C            2.48227694504095       -3.65611651449599       -3.85789326598326
C            3.57307067321836       -3.49204396464618       -4.69412891124103
H            3.74160314747384       -0.12257055748397       -4.73184219888451
H            0.99009672675509       -2.66551559463366       -2.68001659944617
H            4.87047412439822       -2.08644580698266       -5.65540863731815
H            2.13081253108484       -4.64840144086093       -3.61425582261913
H            4.07652086759179       -4.35466838589499       -5.10585390423361
C            2.77903981804044        1.12213881863282       -2.20208828903648
H            3.50117048263710        1.34634300082873       -2.99147402101629
H            2.36412213514387        2.06898081024609       -1.84415199753581
C            3.45392324435554        0.38211666051395       -1.05559090661810
H            3.87563710018435       -0.55876297753169       -1.40611072295818
H            2.73379238510347        0.15944707433919       -0.27063818767140
H            4.25562245700513        0.98254343301051       -0.62865610122729

          :  Hamiltonian                  GFN2-xTB          :
         :: gradient norm              0.000039290575 Eh/a0 ::
         :: HOMO-LUMO gap              3.636920367925 eV    ::
         :: SCC energy               -32.077698014330 Eh    ::
         :: -> dispersion             -0.024036161223 Eh    ::
         :: repulsion energy           0.520676193637 Eh    ::

    * Orbital Energies and Occupations

         #    Occupation            Energy/Eh            Energy/eV
      -------------------------------------------------------------
         1        2.0000           -0.6581227             -17.9084
       ...           ...                  ...                  ...
        18        2.0000           -0.4773540             -12.9895
        19        2.0000           -0.4746437             -12.9157
        20        2.0000           -0.4704142             -12.8006
        21        2.0000           -0.4563233             -12.4172
        22        2.0000           -0.4562086             -12.4141
        23        2.0000           -0.4422957             -12.0355
        24        2.0000           -0.4364989             -11.8777
        25        2.0000           -0.4232607             -11.5175
        26        2.0000           -0.4194496             -11.4138
        27        2.0000           -0.4052707             -11.0280
        28        2.0000           -0.4045323             -11.0079
        29        2.0000           -0.3970169             -10.8034
        30        2.0000           -0.3672925              -9.9945 (HOMO)
        31                         -0.2336381              -6.3576 (LUMO)
        32                         -0.2230331              -6.0690
        33                         -0.1549227              -4.2157
        34                         -0.1507377              -4.1018
        35                         -0.0927986              -2.5252
        36                          0.0046381               0.1262
        37                          0.0548383               1.4922
        38                          0.0923221               2.5122
        39                          0.1108739               3.0170
        40                          0.1352712               3.6809
        41                          0.1375437               3.7428
       ...                                ...                  ...
        64                          0.7794049              21.2087
      -------------------------------------------------------------
                  HL-Gap            0.1336544 Eh            3.6369 eV

     #   Z          covCN         q      C6AA      α(0)
     1  15 P        3.056    -0.118   165.589    23.117
     2   6 C        3.748    -0.047    21.475     6.610
     3   1 H        0.926     0.039     2.469     2.457
     4   1 H        0.925     0.042     2.418     2.432
     5   6 C        3.821    -0.096    22.317     6.723
     6   1 H        0.925     0.042     2.428     2.437
     7   1 H        0.925     0.036     2.501     2.473
     8   1 H        0.925     0.033     2.546     2.495
     9   6 C        2.916     0.011    27.768     8.641
    10   6 C        2.961    -0.027    28.681     8.784
    11   6 C        3.016    -0.030    28.728     8.792
    12   6 C        2.919    -0.031    28.784     8.798
    13   6 C        2.918    -0.030    28.749     8.793
    14   6 C        2.920    -0.029    28.734     8.790
    15   1 H        0.926     0.032     2.563     2.504
    16   1 H        0.925     0.040     2.451     2.448
    17   1 H        0.926     0.028     2.619     2.531
    18   1 H        0.926     0.030     2.588     2.516
    19   1 H        0.926     0.029     2.603     2.523
    20   6 C        3.748    -0.047    21.475     6.610
    21   1 H        0.925     0.042     2.420     2.433
    22   1 H        0.926     0.038     2.469     2.457
    23   6 C        3.821    -0.096    22.316     6.723
    24   1 H        0.925     0.036     2.501     2.473
    25   1 H        0.925     0.042     2.428     2.437
    26   1 H        0.925     0.033     2.546     2.495

Wiberg/Mayer (AO) data.
largest (>0.10) Wiberg bond orders for each atom

     #   Z sym  total        # sym  WBO       # sym  WBO       # sym  WBO
 ---------------------------------------------------------------------------
     1  15 P    3.348 --    20 C    1.025     2 C    1.024     9 C    1.007
     2   6 C    3.993 --     1 P    1.024     5 C    1.017     3 H    0.958
                             4 H    0.951
     3   1 H    0.998 --     2 C    0.958
     4   1 H    0.998 --     2 C    0.951
     5   6 C    3.995 --     2 C    1.017     6 H    0.985     8 H    0.984
                             7 H    0.984
     6   1 H    0.998 --     5 C    0.985
     7   1 H    0.999 --     5 C    0.984
     8   1 H    0.999 --     5 C    0.984
     9   6 C    3.983 --    11 C    1.408    10 C    1.400     1 P    1.007
                            14 C    0.108
    10   6 C    3.993 --    12 C    1.450     9 C    1.400    15 H    0.961
                            13 C    0.111
    11   6 C    3.992 --    13 C    1.443     9 C    1.408    16 H    0.964
                            12 C    0.108
    12   6 C    3.993 --    10 C    1.450    14 C    1.432    17 H    0.970
                            11 C    0.108
    13   6 C    3.992 --    11 C    1.443    14 C    1.441    18 H    0.970
                            10 C    0.111
    14   6 C    3.985 --    13 C    1.441    12 C    1.432    19 H    0.971
                             9 C    0.108
    15   1 H    0.999 --    10 C    0.961
    16   1 H    0.998 --    11 C    0.964
    17   1 H    0.999 --    12 C    0.970
    18   1 H    0.999 --    13 C    0.970
    19   1 H    0.999 --    14 C    0.971
    20   6 C    3.993 --     1 P    1.025    23 C    1.017    22 H    0.958
                            21 H    0.951
    21   1 H    0.998 --    20 C    0.951
    22   1 H    0.998 --    20 C    0.958
    23   6 C    3.995 --    20 C    1.017    25 H    0.985    26 H    0.985
                            24 H    0.984
    24   1 H    0.999 --    23 C    0.984
    25   1 H    0.998 --    23 C    0.985
    26   1 H    0.999 --    23 C    0.985
 ---------------------------------------------------------------------------

molecular dipole:
                 x           y           z       tot (Debye)
 q only:        0.164       0.117      -0.128
   full:        0.485       0.187      -0.378       1.633

 projected vibrational frequencies (cm⁻¹)
eigval :       -0.00    -0.00    -0.00     0.00     0.00     0.00
eigval :       17.99    50.45    65.16   121.27   122.36   164.35
eigval :      199.71   213.96   232.39   295.32   318.30   320.61
eigval :      363.62   401.32   450.38   586.11   657.50   668.71
eigval :      687.40   704.78   735.17   753.36   780.21   875.02
eigval :      899.15   926.85   932.96   969.39   975.72   998.48
eigval :     1003.55  1020.12  1062.78  1082.79  1085.05  1116.99
eigval :     1121.58  1181.69  1198.87  1217.02  1229.76  1244.53
eigval :     1255.31  1278.95  1315.83  1410.37  1411.00  1423.55
eigval :     1442.69  1449.93  1458.10  1497.22  1497.33  1501.66
eigval :     1501.87  1580.02  1589.62  2931.57  2936.87  2944.72
eigval :     2951.32  3013.91  3014.36  3019.30  3019.49  3029.50
eigval :     3030.60  3061.41  3063.73  3070.78  3076.99  3087.70

   temp. (K)  partition function   enthalpy   heat capacity  entropy
                                   cal/mol     cal/K/mol   cal/K/mol   J/K/mol
 298.15  VIB  0.376E+05             6234.383     39.147     38.691
         ROT  0.118E+07              888.752      2.981     30.762
         INT  0.443E+11             7123.135     42.127     69.453
         TR   0.207E+28             1481.254      4.968     41.214
         TOT                        8604.3890    47.0956   110.6662   463.0273

       T/K    H(0)-H(T)+PV         H(T)/Eh          T*S/Eh         G(T)/Eh
   ------------------------------------------------------------------------
    298.15    0.137120E-01    0.232230E+00    0.525811E-01    0.179649E+00
   ------------------------------------------------------------------------

         :::::::::::::::::::::::::::::::::::::::::::::::::::::
         ::                  THERMODYNAMIC                  ::
         :::::::::::::::::::::::::::::::::::::::::::::::::::::
         :: total free energy         -31.377372735483 Eh   ::
         ::.................................................::
         :: total energy              -31.557021820692 Eh   ::
         :: zero point energy           0.218518191259 Eh   ::
         :: G(RRHO) w/o ZPVE           -0.038869106050 Eh   ::
         :: G(RRHO) contrib.            0.179649085209 Eh   ::
         :::::::::::::::::::::::::::::::::::::::::::::::::::::

           -------------------------------------------------
          | TOTAL ENERGY              -31.557021820692 Eh   |
          | TOTAL ENTHALPY            -31.324791662771 Eh   |
          | TOTAL FREE ENERGY         -31.377372735483 Eh   |
          | GRADIENT NORM               0.000039291656 Eh/α |
          | HOMO-LUMO GAP               3.636920310199 eV   |
           -------------------------------------------------

 * finished run on 2025/07/14 at 11:29:50.727
