   * xtb version 6.7.0 (08769fc) compiled by 'albert@albert-system' on 2024-03-04

   ID    Z sym.   atoms
    1   15 P      1
    2    6 C      2, 5, 9-14, 20, 23
    3    1 H      3, 4, 6-8, 15-19, 21, 22, 24-26

          program call               : /home/minenky/programs/xtb/xtb-dist/bin/xtb m1_00_PEt2Ph-PBE0-D3-TZ-uniMM_63.xyz --charge 0 --T --ohess extreme --cycles 5000 --acc 0.01 --iterations 5000
          :  Hamiltonian                  GFN2-xTB          :
 * total energy  :   -31.5319445 Eh     change       -0.6394885E-13 Eh
 * total energy  :   -31.5419588 Eh     change       -0.1001424E-01 Eh
 * total energy  :   -31.5448158 Eh     change       -0.2857077E-02 Eh
 * total energy  :   -31.5462807 Eh     change       -0.1464870E-02 Eh
 * total energy  :   -31.5468277 Eh     change       -0.5469962E-03 Eh
 * total energy  :   -31.5471091 Eh     change       -0.2813833E-03 Eh
 * total energy  :   -31.5473300 Eh     change       -0.2209183E-03 Eh
 * total energy  :   -31.5475836 Eh     change       -0.2535565E-03 Eh
 * total energy  :   -31.5478520 Eh     change       -0.2683908E-03 Eh
 * total energy  :   -31.5480916 Eh     change       -0.2396416E-03 Eh
 * total energy  :   -31.5526214 Eh     change       -0.3711006E-05 Eh
 * total energy  :   -31.5526261 Eh     change       -0.4704834E-05 Eh
 * total energy  :   -31.5526296 Eh     change       -0.3468030E-05 Eh
 * total energy  :   -31.5526314 Eh     change       -0.1778980E-05 Eh
 * total energy  :   -31.5526320 Eh     change       -0.6513159E-06 Eh
 * total energy  :   -31.5526323 Eh     change       -0.2487761E-06 Eh
 * total energy  :   -31.5526325 Eh     change       -0.2808644E-06 Eh
 * total energy  :   -31.5526328 Eh     change       -0.2709285E-06 Eh
 * total energy  :   -31.5526328 Eh     change       -0.6746070E-08 Eh
   *** GEOMETRY OPTIMIZATION CONVERGED AFTER 44 ITERATIONS ***

 final structure:
================
26
 xtb: 6.7.0 (08769fc)
P            1.65635771457523       -0.05142356999475       -3.10739295054353
C            0.27897444130016        1.11718978421968       -3.58329495796227
H            0.19302866943805        1.82871218968371       -2.75658553557104
H            0.66822994703358        1.68226877861508       -4.43674439200535
C           -1.08662392454339        0.54274300512561       -3.94667084140932
H           -1.44819816258287       -0.15347939324024       -3.19368206552657
H           -1.04816959199518        0.02300770303584       -4.90068798829675
H           -1.80896831327807        1.35337291654137       -4.03665429907183
C            1.10755287489644       -0.70860302549633       -1.48225361381874
C            1.96972780342628       -1.62451595848407       -0.88099918834543
C           -0.02395059867183       -0.30493081000893       -0.78347994172768
C            1.67698698523203       -2.17329509776593        0.35241134247722
C           -0.31336859089751       -0.84944146670945        0.45603157123133
C            0.52548654877929       -1.79315543144586        1.02201812496217
H            2.88674528178692       -1.89264334587623       -1.38728693705710
H           -0.68583041815171        0.44362163786204       -1.19026774613443
H            2.35156224149374       -2.89014971979172        0.79853775069701
H           -1.20108003056075       -0.53056598025060        0.98410748405190
H            0.29201643933790       -2.21828698433496        1.98722890721009
C            1.19239368746645       -1.50423227476509       -4.19357033177093
H            0.20372251271168       -1.87650433235474       -3.91575199211627
H            1.14342108543831       -1.09962566626595       -5.20904933843457
C            2.21011875846436       -2.63503936441034       -4.15173256589151
H            2.19440868348740       -3.13574446442023       -3.18666518882809
H            3.21408444338455       -2.25432175923816       -4.33013906031465
H            1.98116251243233       -3.37366437022668       -4.91883624581014

          :  Hamiltonian                  GFN2-xTB          :
         :: gradient norm              0.000047227854 Eh/a0 ::
         :: HOMO-LUMO gap              3.635076702103 eV    ::
         :: SCC energy               -32.073031910833 Eh    ::
         :: -> dispersion             -0.024139839503 Eh    ::
         :: repulsion energy           0.520399089537 Eh    ::

    * Orbital Energies and Occupations

         #    Occupation            Energy/Eh            Energy/eV
      -------------------------------------------------------------
         1        2.0000           -0.6579723             -17.9043
       ...           ...                  ...                  ...
        18        2.0000           -0.4746021             -12.9146
        19        2.0000           -0.4732581             -12.8780
        20        2.0000           -0.4667468             -12.7008
        21        2.0000           -0.4607734             -12.5383
        22        2.0000           -0.4562429             -12.4150
        23        2.0000           -0.4433352             -12.0638
        24        2.0000           -0.4419699             -12.0266
        25        2.0000           -0.4236415             -11.5279
        26        2.0000           -0.4147344             -11.2855
        27        2.0000           -0.4065682             -11.0633
        28        2.0000           -0.4017553             -10.9323
        29        2.0000           -0.3980498             -10.8315
        30        2.0000           -0.3631244              -9.8811 (HOMO)
        31                         -0.2295378              -6.2460 (LUMO)
        32                         -0.2209141              -6.0114
        33                         -0.1590568              -4.3282
        34                         -0.1470521              -4.0015
        35                         -0.0921129              -2.5065
        36                         -0.0087507              -0.2381
        37                          0.0675395               1.8378
        38                          0.0825970               2.2476
        39                          0.1174243               3.1953
        40                          0.1228574               3.3431
        41                          0.1310333               3.5656
       ...                                ...                  ...
        64                          0.7741239              21.0650
      -------------------------------------------------------------
                  HL-Gap            0.1335866 Eh            3.6351 eV

     #   Z          covCN         q      C6AA      α(0)
     1  15 P        2.996    -0.115   165.487    23.110
     2   6 C        3.747    -0.047    21.489     6.612
     3   1 H        0.926     0.043     2.414     2.430
     4   1 H        0.926     0.039     2.465     2.455
     5   6 C        3.771    -0.096    22.360     6.738
     6   1 H        0.925     0.041     2.441     2.443
     7   1 H        0.925     0.036     2.500     2.473
     8   1 H        0.925     0.033     2.549     2.497
     9   6 C        2.915     0.010    27.792     8.645
    10   6 C        3.030    -0.031    28.746     8.794
    11   6 C        2.956    -0.034    28.838     8.808
    12   6 C        2.918    -0.030    28.759     8.794
    13   6 C        2.920    -0.031    28.784     8.798
    14   6 C        2.920    -0.031    28.766     8.795
    15   1 H        0.925     0.038     2.482     2.464
    16   1 H        0.926     0.036     2.497     2.471
    17   1 H        0.926     0.028     2.617     2.530
    18   1 H        0.926     0.027     2.633     2.538
    19   1 H        0.926     0.028     2.622     2.532
    20   6 C        3.748    -0.044    21.430     6.603
    21   1 H        0.925     0.046     2.374     2.410
    22   1 H        0.926     0.043     2.412     2.429
    23   6 C        3.799    -0.099    22.384     6.736
    24   1 H        0.925     0.039     2.459     2.452
    25   1 H        0.925     0.041     2.430     2.438
    26   1 H        0.925     0.033     2.550     2.497

Wiberg/Mayer (AO) data.
largest (>0.10) Wiberg bond orders for each atom

     #   Z sym  total        # sym  WBO       # sym  WBO       # sym  WBO
 ---------------------------------------------------------------------------
     1  15 P    3.370 --     2 C    1.029     9 C    1.019    20 C    1.012
     2   6 C    3.991 --     1 P    1.029     5 C    1.009     4 H    0.958
                             3 H    0.953
     3   1 H    0.998 --     2 C    0.953
     4   1 H    0.998 --     2 C    0.958
     5   6 C    3.996 --     2 C    1.009     7 H    0.986     8 H    0.983
                             6 H    0.981
     6   1 H    0.998 --     5 C    0.981
     7   1 H    0.999 --     5 C    0.986
     8   1 H    0.999 --     5 C    0.983
     9   6 C    3.982 --    11 C    1.402    10 C    1.391     1 P    1.019
                            14 C    0.106
    10   6 C    3.992 --    12 C    1.454     9 C    1.391    15 H    0.961
                            13 C    0.109
    11   6 C    3.992 --    13 C    1.441     9 C    1.402    16 H    0.962
                            12 C    0.108
    12   6 C    3.991 --    10 C    1.454    14 C    1.430    17 H    0.970
                            11 C    0.108
    13   6 C    3.992 --    11 C    1.441    14 C    1.440    18 H    0.970
                            10 C    0.109
    14   6 C    3.991 --    13 C    1.440    12 C    1.430    19 H    0.971
                             9 C    0.106
    15   1 H    0.999 --    10 C    0.961
    16   1 H    0.999 --    11 C    0.962
    17   1 H    0.999 --    12 C    0.970
    18   1 H    0.999 --    13 C    0.970
    19   1 H    0.999 --    14 C    0.971
    20   6 C    3.996 --    23 C    1.018     1 P    1.012    22 H    0.955
                            21 H    0.954
    21   1 H    0.998 --    20 C    0.954
    22   1 H    0.997 --    20 C    0.955
    23   6 C    3.996 --    20 C    1.018    25 H    0.985    26 H    0.984
                            24 H    0.983
    24   1 H    0.998 --    23 C    0.983
    25   1 H    0.998 --    23 C    0.985
    26   1 H    0.998 --    23 C    0.984
 ---------------------------------------------------------------------------

molecular dipole:
                 x           y           z       tot (Debye)
 q only:       -0.251      -0.111      -0.196
   full:       -0.603      -0.232      -0.149       1.685

 projected vibrational frequencies (cm⁻¹)
eigval :       -0.00    -0.00    -0.00     0.00     0.00     0.00
eigval :       -4.30    78.76   103.71   129.99   165.19   192.75
eigval :      210.88   232.03   253.19   259.48   287.23   366.07
eigval :      377.51   409.34   465.16   585.65   644.88   660.43
eigval :      678.36   688.29   738.17   752.30   776.35   877.80
eigval :      901.24   929.03   933.66   968.11   992.15  1000.71
eigval :     1018.71  1021.43  1060.46  1081.51  1085.17  1114.81
eigval :     1121.66  1181.55  1203.54  1228.87  1232.44  1251.71
eigval :     1275.30  1281.22  1316.02  1408.24  1410.81  1420.90
eigval :     1442.90  1454.99  1465.01  1497.68  1503.05  1507.55
eigval :     1513.42  1577.26  1588.93  2928.89  2938.48  2949.11
eigval :     2951.82  3009.08  3011.22  3025.48  3034.27  3038.65
eigval :     3043.08  3062.99  3067.15  3074.53  3086.68  3099.59

   temp. (K)  partition function   enthalpy   heat capacity  entropy
                                   cal/mol     cal/K/mol   cal/K/mol   J/K/mol
 298.15  VIB  0.455E+05             6044.212     39.474     37.722
         ROT  0.118E+07              888.752      2.981     30.762
         INT  0.536E+11             6932.965     42.454     68.484
         TR   0.207E+28             1481.254      4.968     41.214
         TOT                        8414.2184    47.4225   109.6978   458.9754

       T/K    H(0)-H(T)+PV         H(T)/Eh          T*S/Eh         G(T)/Eh
   ------------------------------------------------------------------------
    298.15    0.134089E-01    0.232680E+00    0.521209E-01    0.180559E+00
   ------------------------------------------------------------------------

         :::::::::::::::::::::::::::::::::::::::::::::::::::::
         ::                  THERMODYNAMIC                  ::
         :::::::::::::::::::::::::::::::::::::::::::::::::::::
         :: total free energy         -31.372073836749 Eh   ::
         ::.................................................::
         :: total energy              -31.552632821296 Eh   ::
         :: zero point energy           0.219271016003 Eh   ::
         :: G(RRHO) w/o ZPVE           -0.038712031456 Eh   ::
         :: G(RRHO) contrib.            0.180558984547 Eh   ::
         :::::::::::::::::::::::::::::::::::::::::::::::::::::

           -------------------------------------------------
          | TOTAL ENERGY              -31.552632821296 Eh   |
          | TOTAL ENTHALPY            -31.319952894686 Eh   |
          | TOTAL FREE ENERGY         -31.372073836749 Eh   |
          | GRADIENT NORM               0.000047227591 Eh/α |
          | HOMO-LUMO GAP               3.635076713174 eV   |
           -------------------------------------------------

 * finished run on 2025/07/14 at 11:36:41.400
