   * xtb version 6.7.0 (08769fc) compiled by 'albert@albert-system' on 2024-03-04

   ID    Z sym.   atoms
    1   15 P      1
    2    6 C      2, 5, 9-14, 20, 23
    3    1 H      3, 4, 6-8, 15-19, 21, 22, 24-26

          program call               : /home/minenky/programs/xtb/xtb-dist/bin/xtb m1_00_PEt2Ph-PBE0-D3-TZ-uniMM_35.xyz --charge 0 --T --ohess extreme --cycles 5000 --acc 0.01 --iterations 5000
          :  Hamiltonian                  GFN2-xTB          :
 * total energy  :   -31.5471950 Eh     change       -0.6394885E-13 Eh
 * total energy  :   -31.5509383 Eh     change       -0.3743342E-02 Eh
 * total energy  :   -31.5520643 Eh     change       -0.1125996E-02 Eh
 * total energy  :   -31.5528262 Eh     change       -0.7618548E-03 Eh
 * total energy  :   -31.5533519 Eh     change       -0.5257499E-03 Eh
 * total energy  :   -31.5537036 Eh     change       -0.3516360E-03 Eh
 * total energy  :   -31.5539402 Eh     change       -0.2366127E-03 Eh
 * total energy  :   -31.5541012 Eh     change       -0.1610342E-03 Eh
 * total energy  :   -31.5542277 Eh     change       -0.1264867E-03 Eh
 * total energy  :   -31.5543228 Eh     change       -0.9515078E-04 Eh
 * total energy  :   -31.5561047 Eh     change       -0.1965323E-06 Eh
 * total energy  :   -31.5561049 Eh     change       -0.1851265E-06 Eh
 * total energy  :   -31.5561051 Eh     change       -0.1754723E-06 Eh
 * total energy  :   -31.5561053 Eh     change       -0.1667715E-06 Eh
 * total energy  :   -31.5561054 Eh     change       -0.1594378E-06 Eh
 * total energy  :   -31.5561056 Eh     change       -0.1528930E-06 Eh
 * total energy  :   -31.5561057 Eh     change       -0.1472146E-06 Eh
 * total energy  :   -31.5561059 Eh     change       -0.1421474E-06 Eh
 * total energy  :   -31.5561059 Eh     change       -0.1227654E-08 Eh
   *** GEOMETRY OPTIMIZATION CONVERGED AFTER 340 ITERATIONS ***

 final structure:
================
26
 xtb: 6.7.0 (08769fc)
P            1.93598670677119       -0.06650004569184       -2.92553676352909
C            0.24304812140403        0.04659615880927       -2.14650294250502
H            0.39919074485388        0.07312526598332       -1.06421544684649
H           -0.25614372192721        0.97488071232061       -2.43707206830089
C           -0.60821152362949       -1.16231244488181       -2.50929719280976
H           -0.10298046087550       -2.08188980024698       -2.22004015285307
H           -0.78649190319381       -1.19715226498152       -3.58291874305978
H           -1.56985328710345       -1.12195554848308       -2.00001094532959
C            1.47844843295502        0.00574363207588       -4.70785819079013
C            2.16181019321490       -0.85149179275675       -5.56321194102910
C            0.51556535989549        0.85711537975216       -5.23760584925130
C            1.89482191964505       -0.85832114751824       -6.92049516338880
C            0.24546839926497        0.84851703787233       -6.59365765310476
C            0.93394290797406       -0.00699341736828       -7.43812942757887
H            2.90778230806079       -1.51650431131135       -5.15014233690323
H           -0.03358030184757        1.53090559454880       -4.59541990061825
H            2.43403713974364       -1.52839338565765       -7.57451118741666
H           -0.50663714683551        1.51312633049688       -6.99510767061100
H            0.71953610194848       -0.00946372387720       -8.49694497225638
C            2.46099718906623        1.71726117096631       -2.74118303369019
H            3.32414369212209        1.85195165428767       -3.39986355553825
H            1.66455692277331        2.38049254432584       -3.08995285072599
C            2.85009244916605        2.04978123267402       -1.30724468139356
H            3.62193414253962        1.36779356279125       -0.95602658975196
H            1.99279274050700        1.96586694608563       -0.64273792723596
H            3.23386087350861        3.06677065978720       -1.24282081348227

          :  Hamiltonian                  GFN2-xTB          :
         :: gradient norm              0.000028599361 Eh/a0 ::
         :: HOMO-LUMO gap              3.641281859017 eV    ::
         :: SCC energy               -32.076718841717 Eh    ::
         :: -> dispersion             -0.023679963053 Eh    ::
         :: repulsion energy           0.520612975726 Eh    ::

    * Orbital Energies and Occupations

         #    Occupation            Energy/Eh            Energy/eV
      -------------------------------------------------------------
         1        2.0000           -0.6578814             -17.9019
       ...           ...                  ...                  ...
        18        2.0000           -0.4773614             -12.9897
        19        2.0000           -0.4745161             -12.9122
        20        2.0000           -0.4630299             -12.5997
        21        2.0000           -0.4620997             -12.5744
        22        2.0000           -0.4534453             -12.3389
        23        2.0000           -0.4450388             -12.1101
        24        2.0000           -0.4376535             -11.9092
        25        2.0000           -0.4231401             -11.5142
        26        2.0000           -0.4184196             -11.3858
        27        2.0000           -0.4046782             -11.0119
        28        2.0000           -0.4043350             -11.0025
        29        2.0000           -0.3967834             -10.7970
        30        2.0000           -0.3669622              -9.9856 (HOMO)
        31                         -0.2331476              -6.3443 (LUMO)
        32                         -0.2229320              -6.0663
        33                         -0.1564270              -4.2566
        34                         -0.1499081              -4.0792
        35                         -0.0930409              -2.5318
        36                          0.0052064               0.1417
        37                          0.0555105               1.5105
        38                          0.0885563               2.4097
        39                          0.0952102               2.5908
        40                          0.1354480               3.6857
        41                          0.1378618               3.7514
       ...                                ...                  ...
        64                          0.7864376              21.4001
      -------------------------------------------------------------
                  HL-Gap            0.1338146 Eh            3.6413 eV

     #   Z          covCN         q      C6AA      α(0)
     1  15 P        3.045    -0.116   165.504    23.111
     2   6 C        3.748    -0.045    21.445     6.605
     3   1 H        0.926     0.039     2.463     2.454
     4   1 H        0.925     0.042     2.428     2.437
     5   6 C        3.819    -0.096    22.315     6.723
     6   1 H        0.925     0.041     2.436     2.441
     7   1 H        0.925     0.036     2.507     2.476
     8   1 H        0.925     0.032     2.556     2.500
     9   6 C        2.916     0.008    27.844     8.653
    10   6 C        3.017    -0.030    28.737     8.793
    11   6 C        2.960    -0.028    28.710     8.789
    12   6 C        2.918    -0.030    28.740     8.791
    13   6 C        2.919    -0.031    28.782     8.798
    14   6 C        2.920    -0.029    28.732     8.790
    15   1 H        0.925     0.040     2.455     2.450
    16   1 H        0.926     0.032     2.554     2.499
    17   1 H        0.926     0.030     2.581     2.512
    18   1 H        0.926     0.028     2.612     2.528
    19   1 H        0.926     0.029     2.596     2.520
    20   6 C        3.748    -0.046    21.470     6.609
    21   1 H        0.926     0.038     2.469     2.457
    22   1 H        0.925     0.043     2.413     2.429
    23   6 C        3.811    -0.098    22.356     6.730
    24   1 H        0.925     0.042     2.423     2.434
    25   1 H        0.925     0.037     2.492     2.469
    26   1 H        0.925     0.034     2.537     2.491

Wiberg/Mayer (AO) data.
largest (>0.10) Wiberg bond orders for each atom

     #   Z sym  total        # sym  WBO       # sym  WBO       # sym  WBO
 ---------------------------------------------------------------------------
     1  15 P    3.346 --     2 C    1.028    20 C    1.021     9 C    1.006
     2   6 C    3.994 --     1 P    1.028     5 C    1.016     3 H    0.957
                             4 H    0.950
     3   1 H    0.998 --     2 C    0.957
     4   1 H    0.998 --     2 C    0.950
     5   6 C    3.997 --     2 C    1.016     8 H    0.985     6 H    0.984
                             7 H    0.984
     6   1 H    0.998 --     5 C    0.984
     7   1 H    0.999 --     5 C    0.984
     8   1 H    0.999 --     5 C    0.985
     9   6 C    3.983 --    10 C    1.408    11 C    1.400     1 P    1.006
                            14 C    0.108
    10   6 C    3.991 --    12 C    1.443     9 C    1.408    15 H    0.964
                            13 C    0.108
    11   6 C    3.992 --    13 C    1.449     9 C    1.400    16 H    0.961
                            12 C    0.110
    12   6 C    3.992 --    10 C    1.443    14 C    1.440    17 H    0.970
                            11 C    0.110
    13   6 C    3.993 --    11 C    1.449    14 C    1.433    18 H    0.970
                            10 C    0.108
    14   6 C    3.989 --    12 C    1.440    13 C    1.433    19 H    0.971
                             9 C    0.108
    15   1 H    0.998 --    10 C    0.964
    16   1 H    0.999 --    11 C    0.961
    17   1 H    0.999 --    12 C    0.970
    18   1 H    0.999 --    13 C    0.970
    19   1 H    0.998 --    14 C    0.971
    20   6 C    3.995 --     1 P    1.021    23 C    1.016    21 H    0.959
                            22 H    0.951
    21   1 H    0.998 --    20 C    0.959
    22   1 H    0.998 --    20 C    0.951
    23   6 C    3.996 --    20 C    1.016    25 H    0.985    24 H    0.985
                            26 H    0.984
    24   1 H    0.998 --    23 C    0.985
    25   1 H    0.999 --    23 C    0.985
    26   1 H    0.998 --    23 C    0.984
 ---------------------------------------------------------------------------

molecular dipole:
                 x           y           z       tot (Debye)
 q only:       -0.152       0.204       0.039
   full:       -0.400       0.495      -0.104       1.640

 projected vibrational frequencies (cm⁻¹)
eigval :       -0.00    -0.00    -0.00     0.00     0.00     0.00
eigval :       23.41    54.58    72.05    94.23   144.07   167.97
eigval :      203.28   215.91   224.36   265.56   314.65   328.67
eigval :      363.16   425.37   450.77   586.03   655.61   660.21
eigval :      686.03   702.04   739.20   754.40   778.04   874.76
eigval :      898.87   926.59   932.72   968.74   974.87   997.85
eigval :     1013.14  1016.92  1071.43  1076.75  1083.11  1117.53
eigval :     1121.35  1181.65  1199.10  1220.33  1225.48  1250.41
eigval :     1255.59  1278.10  1315.61  1409.31  1411.45  1423.41
eigval :     1446.27  1451.32  1458.93  1497.31  1498.55  1501.88
eigval :     1502.26  1579.92  1589.64  2928.89  2934.30  2946.61
eigval :     2949.75  3013.14  3014.20  3020.37  3026.75  3029.61
eigval :     3033.71  3063.40  3063.95  3072.17  3077.54  3087.95

   temp. (K)  partition function   enthalpy   heat capacity  entropy
                                   cal/mol     cal/K/mol   cal/K/mol   J/K/mol
 298.15  VIB  0.276E+05             6228.411     39.293     38.562
         ROT  0.122E+07              888.752      2.981     30.824
         INT  0.335E+11             7117.164     42.273     69.386
         TR   0.207E+28             1481.254      4.968     41.214
         TOT                        8598.4176    47.2416   110.5999   462.7499

       T/K    H(0)-H(T)+PV         H(T)/Eh          T*S/Eh         G(T)/Eh
   ------------------------------------------------------------------------
    298.15    0.137025E-01    0.232277E+00    0.525496E-01    0.179727E+00
   ------------------------------------------------------------------------

         :::::::::::::::::::::::::::::::::::::::::::::::::::::
         ::                  THERMODYNAMIC                  ::
         :::::::::::::::::::::::::::::::::::::::::::::::::::::
         :: total free energy         -31.376378518066 Eh   ::
         ::.................................................::
         :: total energy              -31.556105865991 Eh   ::
         :: zero point energy           0.218574463797 Eh   ::
         :: G(RRHO) w/o ZPVE           -0.038847115872 Eh   ::
         :: G(RRHO) contrib.            0.179727347925 Eh   ::
         :::::::::::::::::::::::::::::::::::::::::::::::::::::

           -------------------------------------------------
          | TOTAL ENERGY              -31.556105865991 Eh   |
          | TOTAL ENTHALPY            -31.323828951511 Eh   |
          | TOTAL FREE ENERGY         -31.376378518066 Eh   |
          | GRADIENT NORM               0.000028599241 Eh/α |
          | HOMO-LUMO GAP               3.641281896836 eV   |
           -------------------------------------------------

 * finished run on 2025/07/14 at 11:30:53.777
