                         Program Version 6.0.1  -  RELEASE   -
|  1> # put your comments here
|  2> %pal nprocs 6 end
|  3> ! PBE0 def2-tzvp OPT D3BJ FREQ DEFGRID3 NOTRAH CHELPG
|  4> %scf MaxIter 800 end
|  5> %output
|  6> Print [P_Hirshfeld] 1
|  7> end
|  8> %MaxCore 1000
|  9> %geom
| 10> MaxIter 3000
| 11>  TolE 1e-6 #TolE 5e-6 Energy change (a.u.)
| 12>  TolRMSG 3e-5 #TolRMSG 1e-4 RMS gradient (a.u.)
| 13>  TolMaxG 1e-4 #TolMaxG 3e-3 Max. element of gradient (a.u.)
| 14>  TolRMSD 2e-3 #TolRMSD 2e-3 RMS displacement (a.u.)
| 15>  TolMaxD 4e-3 #TolMaxD 4e-3 Max. displacement (a.u.)
| 16> end
| 17> * xyz 0 1
| 18>  P      1.586357512      0.000000057     -2.874914236
| 19>  C      2.941764958     -0.782545460     -2.211217642
| 20>  H      3.845047089     -0.466903262     -2.746907439
| 21>  H      3.072500226     -0.466903262     -1.169204947
| 22>  C      2.833316538     -2.316789992     -2.264321118
| 23>  H      2.733209127     -2.666994685     -3.296714368
| 24>  H      1.956414055     -2.666994685     -1.710336144
| 25>  H      3.720862611     -2.788601792     -1.829720211
| 26>  C      0.230950066     -0.782545460     -2.211217642
| 27>  C     -0.875084084     -1.115131247     -3.011471680
| 28>  C      0.184874230     -1.115131247     -0.846814812
| 29>  C     -1.986542739     -1.756750516     -2.467589050
| 30>  C     -0.926299579     -1.756750516     -0.302350466
| 31>  C     -2.017438313     -2.080654196     -1.110258876
| 32>  H     -0.861411054     -0.867751266     -4.068392017
| 33>  H      1.028149865     -0.867751266     -0.209512880
| 34>  H     -2.830111120     -2.004074338     -3.105735107
| 35>  H     -0.939485321     -2.004074338      0.755318736
| 36>  H     -2.883304756     -2.580562844     -0.686273741
| 37>  C      1.586357512      1.565090248     -2.211218000
| 38>  H      2.464704512      2.114667194     -2.570361276
| 39>  H      0.708010512      2.114667194     -2.570361276
| 40>  C      1.586357512      1.563147457     -0.672230167
| 41>  H      2.469534512      1.047881650     -0.281077795
| 42>  H      0.703180512      1.047881650     -0.281077795
| 43>  H      1.586357512      2.584862197     -0.278121876
| 44> *
| 45>
| 46>
| 47>
| 48>
| 49>                          ****END OF INPUT****
 Total Charge           Charge          ....    0
 Multiplicity           Mult            ....    1
 Number of Electrons    NEL             ....   90
Dispersion correction           -0.029032386
FINAL SINGLE POINT ENERGY      -730.983430632918
Dispersion correction             ... done (  0.0 sec)
Dispersion correction           -0.027828205
FINAL SINGLE POINT ENERGY      -731.007866402068
Dispersion correction             ... done (  0.0 sec)
Dispersion correction           -0.027531906
FINAL SINGLE POINT ENERGY      -731.018005912703
Dispersion correction             ... done (  0.0 sec)
FINAL SINGLE POINT ENERGY      -731.021225773736
FINAL SINGLE POINT ENERGY      -731.021962161732
FINAL SINGLE POINT ENERGY      -731.022246190607
FINAL SINGLE POINT ENERGY      -731.022413739486
FINAL SINGLE POINT ENERGY      -731.022468109732
FINAL SINGLE POINT ENERGY      -731.022501683794
Dispersion correction             ... done (  0.0 sec)
Dispersion correction           -0.027608741
FINAL SINGLE POINT ENERGY      -731.022513040359
Dispersion correction             ... done (  0.0 sec)
Dispersion correction           -0.027603679
FINAL SINGLE POINT ENERGY      -731.022515937272
Dispersion correction             ... done (  0.0 sec)
                    ***********************HURRAY********************

CARTESIAN COORDINATES (ANGSTROEM)
---------------------------------
  P      1.630298   -0.257098   -2.973429
  C      3.035457   -0.901473   -1.970672
  H      3.893986   -0.280467   -2.248057
  H      2.878559   -0.748520   -0.899228
  C      3.331072   -2.363132   -2.273820
  H      3.531075   -2.508412   -3.337613
  H      2.486106   -3.003531   -2.010860
  H      4.201635   -2.713683   -1.714355
  C      0.162377   -0.958519   -2.135155
  C     -1.057815   -0.826475   -2.799193
  C      0.173744   -1.605857   -0.902010
  C     -2.232770   -1.300097   -2.238916
  C     -0.998126   -2.097805   -0.345718
  C     -2.205372   -1.941598   -1.008936
  H     -1.080501   -0.349856   -3.774529
  H      1.103487   -1.729846   -0.359664
  H     -3.170483   -1.180465   -2.769570
  H     -0.967020   -2.602031    0.613654
  H     -3.120652   -2.324561   -0.572729
  C      1.532622    1.500358   -2.388019
  H      2.403450    2.004145   -2.821532
  H      0.660663    1.924244   -2.895668
  C      1.448743    1.751494   -0.893059
  H      2.347185    1.410672   -0.374642
  H      0.592860    1.234833   -0.453719
  H      1.337693    2.818969   -0.684644

 Multiplicity           Mult            ....    1
 Number of Electrons    NEL             ....   90
 Basis Dimension        Dim             ....  437

ORBITAL ENERGIES
----------------

  NO   OCC          E(Eh)            E(eV)
   0   2.0000     -77.190147     -2100.4507
   1   2.0000     -10.232702      -278.4460
   2   2.0000     -10.228750      -278.3384
   3   2.0000     -10.228033      -278.3189
   4   2.0000     -10.227705      -278.3100
   5   2.0000     -10.227380      -278.3012
   6   2.0000     -10.226909      -278.2883
   7   2.0000     -10.224189      -278.2143
   8   2.0000     -10.223861      -278.2054
   9   2.0000     -10.212242      -277.8892
  10   2.0000     -10.210170      -277.8328
  11   2.0000      -6.586705      -179.2333
  12   2.0000      -4.721826      -128.4874
  13   2.0000      -4.721513      -128.4789
  14   2.0000      -4.719728      -128.4303
  15   2.0000      -0.886931       -24.1346
  16   2.0000      -0.811447       -22.0806
  17   2.0000      -0.779475       -21.2106
  18   2.0000      -0.772284       -21.0149
  19   2.0000      -0.769336       -20.9347
  20   2.0000      -0.675364       -18.3776
  21   2.0000      -0.637297       -17.3417
  22   2.0000      -0.624796       -17.0016
  23   2.0000      -0.621857       -16.9216
  24   2.0000      -0.560934       -15.2638
  25   2.0000      -0.520034       -14.1509
  26   2.0000      -0.474932       -12.9235
  27   2.0000      -0.467731       -12.7276
  28   2.0000      -0.464917       -12.6510
  29   2.0000      -0.457414       -12.4469
  30   2.0000      -0.449123       -12.2213
  31   2.0000      -0.434117       -11.8129
  32   2.0000      -0.420151       -11.4329
  33   2.0000      -0.403781       -10.9874
  34   2.0000      -0.389627       -10.6023
  35   2.0000      -0.385767       -10.4973
  36   2.0000      -0.383157       -10.4262
  37   2.0000      -0.368890       -10.0380
  38   2.0000      -0.356707        -9.7065
  39   2.0000      -0.356033        -9.6881
  40   2.0000      -0.322143        -8.7660
  41   2.0000      -0.317446        -8.6382
  42   2.0000      -0.274944        -7.4816
  43   2.0000      -0.269765        -7.3407
  44   2.0000      -0.226882        -6.1738
  45   0.0000      -0.018004        -0.4899
  46   0.0000      -0.009535        -0.2595
  47   0.0000       0.036818         1.0019
  48   0.0000       0.052361         1.4248
  49   0.0000       0.055539         1.5113

MULLIKEN ATOMIC CHARGES
-----------------------
   0 P :    0.071623
   1 C :   -0.283201
   2 H :    0.124775
   3 H :    0.120164
   4 C :   -0.365743
   5 H :    0.127918
   6 H :    0.133690
   7 H :    0.122271
   8 C :    0.084285
   9 C :   -0.161799
  10 C :   -0.162109
  11 C :   -0.144110
  12 C :   -0.159960
  13 C :   -0.090626
  14 H :    0.112433
  15 H :    0.116783
  16 H :    0.114826
  17 H :    0.113998
  18 H :    0.115996
  19 C :   -0.235045
  20 H :    0.121202
  21 H :    0.122251
  22 C :   -0.391472
  23 H :    0.122108
  24 H :    0.144188
  25 H :    0.125555
Sum of atomic charges:    0.0000000

LOEWDIN ATOMIC CHARGES
----------------------
   0 P :    0.581910
   1 C :   -0.442407
   2 H :    0.135802
   3 H :    0.121780
   4 C :   -0.343260
   5 H :    0.122608
   6 H :    0.122153
   7 H :    0.119414
   8 C :   -0.281208
   9 C :   -0.143032
  10 C :   -0.146298
  11 C :   -0.143399
  12 C :   -0.144923
  13 C :   -0.142847
  14 H :    0.147036
  15 H :    0.146822
  16 H :    0.145784
  17 H :    0.145381
  18 H :    0.145070
  19 C :   -0.442039
  20 H :    0.133797
  21 H :    0.136169
  22 C :   -0.339925
  23 H :    0.118332
  24 H :    0.126552
  25 H :    0.120730

  Mayer bond orders larger than 0.100000
B(  0-P ,  1-C ) :   0.9962 B(  0-P ,  8-C ) :   0.9817 B(  0-P , 19-C ) :   0.9920
B(  1-C ,  2-H ) :   0.9386 B(  1-C ,  3-H ) :   0.9449 B(  1-C ,  4-C ) :   0.9977
B(  4-C ,  5-H ) :   0.9692 B(  4-C ,  6-H ) :   0.9702 B(  4-C ,  7-H ) :   0.9671
B(  8-C ,  9-C ) :   1.3724 B(  8-C , 10-C ) :   1.2979 B(  9-C , 11-C ) :   1.4349
B(  9-C , 14-H ) :   0.9630 B( 10-C , 12-C ) :   1.4377 B( 10-C , 15-H ) :   0.9616
B( 11-C , 13-C ) :   1.4054 B( 11-C , 16-H ) :   0.9686 B( 12-C , 13-C ) :   1.4233
B( 12-C , 17-H ) :   0.9642 B( 13-C , 18-H ) :   0.9655 B( 19-C , 20-H ) :   0.9469
B( 19-C , 21-H ) :   0.9475 B( 19-C , 22-C ) :   0.9798 B( 22-C , 23-H ) :   0.9746
B( 22-C , 24-H ) :   0.9652 B( 22-C , 25-H ) :   0.9610

Dispersion correction           -0.027601443
FINAL SINGLE POINT ENERGY      -731.022516600445

DIPOLE MOMENT
-------------

Method             : SCF
Type of density    : Electron Density
Multiplicity       :   1
Irrep              :   0
Energy             :  -730.9949151574751340 Eh
Relativity type    :
Basis              : AO
                                X                 Y                 Z
Electronic contribution:     -6.158427290      -2.136770000      -4.747559912
Nuclear contribution   :      6.175400646       2.280606314       5.250256607
                        -----------------------------------------
Total Dipole Moment    :      0.016973356       0.143836314       0.502696694
                        -----------------------------------------
Magnitude (a.u.)       :      0.523145244
Magnitude (Debye)      :      1.329729535

VIBRATIONAL FREQUENCIES
-----------------------

Scaling factor for frequencies =  1.000000000  (already applied!)

     0:       0.00 cm**-1
     1:       0.00 cm**-1
     2:       0.00 cm**-1
     3:       0.00 cm**-1
     4:       0.00 cm**-1
     5:       0.00 cm**-1
     6:      28.66 cm**-1
     7:      66.67 cm**-1
     8:      83.42 cm**-1
     9:     114.19 cm**-1
    10:     155.55 cm**-1
    11:     173.06 cm**-1
    12:     215.16 cm**-1
    13:     229.36 cm**-1
    14:     256.09 cm**-1
    15:     276.06 cm**-1
    16:     342.00 cm**-1
    17:     384.77 cm**-1
    18:     406.57 cm**-1
    19:     416.94 cm**-1
    20:     506.43 cm**-1
    21:     629.74 cm**-1
    22:     640.63 cm**-1
    23:     675.47 cm**-1
    24:     700.91 cm**-1
    25:     715.19 cm**-1
    26:     740.45 cm**-1
    27:     757.50 cm**-1
    28:     767.66 cm**-1
    29:     866.50 cm**-1
    30:     932.16 cm**-1
    31:     974.43 cm**-1
    32:     987.97 cm**-1
    33:     988.32 cm**-1
    34:     990.12 cm**-1
    35:     999.89 cm**-1
    36:    1012.10 cm**-1
    37:    1023.26 cm**-1
    38:    1059.78 cm**-1
    39:    1060.25 cm**-1
    40:    1078.50 cm**-1
    41:    1109.88 cm**-1
    42:    1129.80 cm**-1
    43:    1180.25 cm**-1
    44:    1208.79 cm**-1
    45:    1259.51 cm**-1
    46:    1268.97 cm**-1
    47:    1274.26 cm**-1
    48:    1280.70 cm**-1
    49:    1331.21 cm**-1
    50:    1364.71 cm**-1
    51:    1400.89 cm**-1
    52:    1405.78 cm**-1
    53:    1446.84 cm**-1
    54:    1461.32 cm**-1
    55:    1474.63 cm**-1
    56:    1489.25 cm**-1
    57:    1492.02 cm**-1
    58:    1493.98 cm**-1
    59:    1496.95 cm**-1
    60:    1524.12 cm**-1
    61:    1638.84 cm**-1
    62:    1656.59 cm**-1
    63:    3046.17 cm**-1
    64:    3046.52 cm**-1
    65:    3049.74 cm**-1
    66:    3049.83 cm**-1
    67:    3087.00 cm**-1
    68:    3089.68 cm**-1
    69:    3115.36 cm**-1
    70:    3121.18 cm**-1
    71:    3127.90 cm**-1
    72:    3132.16 cm**-1
    73:    3174.22 cm**-1
    74:    3185.59 cm**-1
    75:    3196.14 cm**-1
    76:    3205.51 cm**-1
    77:    3213.54 cm**-1

IR SPECTRUM
-----------

 Mode   freq       eps      Int      T**2         TX        TY        TZ
       cm**-1   L/(mol*cm) km/mol    a.u.
----------------------------------------------------------------------------
  6:     28.66   0.000045    0.23  0.000487  ( 0.009447  0.018926 -0.006320)
  7:     66.67   0.000014    0.07  0.000064  (-0.005147 -0.001482  0.005916)
  8:     83.42   0.000024    0.12  0.000090  (-0.005783  0.004960  0.005625)
  9:    114.19   0.000024    0.12  0.000066  (-0.002806  0.002629  0.007135)
 10:    155.55   0.000015    0.07  0.000030  (-0.000406  0.003093 -0.004462)
 11:    173.06   0.000027    0.13  0.000048  ( 0.005478 -0.001101 -0.004104)
 12:    215.16   0.000196    0.99  0.000284  (-0.006773  0.011834  0.009918)
 13:    229.36   0.000029    0.15  0.000039  ( 0.004065 -0.000474 -0.004743)
 14:    256.09   0.000043    0.22  0.000053  (-0.002496 -0.001456  0.006677)
 15:    276.06   0.000201    1.01  0.000227  (-0.013181  0.006207 -0.003840)
 16:    342.00   0.000156    0.79  0.000142  (-0.011648 -0.001261 -0.002233)
 17:    384.77   0.000285    1.44  0.000231  (-0.011311 -0.010140 -0.000097)
 18:    406.57   0.000067    0.34  0.000051  ( 0.005989  0.002082 -0.003322)
 19:    416.94   0.000221    1.12  0.000166  ( 0.007920  0.008138 -0.006063)
 20:    506.43   0.002450   12.38  0.001510  (-0.015887  0.026333  0.023750)
 21:    629.74   0.000037    0.19  0.000018  ( 0.003431  0.001284  0.002189)
 22:    640.63   0.001758    8.89  0.000857  ( 0.010394  0.026224  0.007802)
 23:    675.47   0.000827    4.18  0.000382  ( 0.010578 -0.015773  0.004623)
 24:    700.91   0.000401    2.03  0.000179  ( 0.013327 -0.000359 -0.000991)
 25:    715.19   0.007101   35.89  0.003099  (-0.006267  0.048919  0.025810)
 26:    740.45   0.006529   33.00  0.002752  (-0.045307  0.022962  0.013105)
 27:    757.50   0.002301   11.63  0.000948  ( 0.010016  0.019369 -0.021741)
 28:    767.66   0.005073   25.64  0.002062  (-0.017546 -0.038263 -0.017038)
 29:    866.50   0.000037    0.19  0.000013  (-0.002996  0.000120  0.002122)
 30:    932.16   0.000211    1.07  0.000071  (-0.000623 -0.008366  0.000524)
 31:    974.43   0.000032    0.16  0.000010  ( 0.001512 -0.001691  0.002261)
 32:    987.97   0.000225    1.13  0.000071  ( 0.002519 -0.008032 -0.000280)
 33:    988.32   0.000881    4.45  0.000278  ( 0.014994 -0.007195  0.001227)
 34:    990.12   0.000405    2.05  0.000128  (-0.001447 -0.010666 -0.003420)
 35:    999.89   0.000652    3.30  0.000204  ( 0.006985 -0.000579  0.012428)
 36:   1012.10   0.001257    6.35  0.000388  ( 0.018154  0.004260 -0.006310)
 37:   1023.26   0.000170    0.86  0.000052  ( 0.006089  0.002060  0.003255)
 38:   1059.78   0.000559    2.83  0.000165  (-0.008065 -0.009869 -0.001497)
 39:   1060.25   0.000357    1.81  0.000105  ( 0.007382 -0.003652 -0.006114)
 40:   1078.50   0.002545   12.86  0.000737  (-0.000475  0.026060  0.007562)
 41:   1109.88   0.000569    2.88  0.000160  (-0.005669  0.003198 -0.010851)
 42:   1129.80   0.001500    7.58  0.000414  (-0.018622 -0.005935  0.005681)
 43:   1180.25   0.000009    0.05  0.000002  (-0.001421 -0.000526  0.000292)
 44:   1208.79   0.000164    0.83  0.000042  (-0.006279 -0.001025 -0.001406)
 45:   1259.51   0.000077    0.39  0.000019  ( 0.003610  0.000270  0.002468)
 46:   1268.97   0.000088    0.45  0.000022  ( 0.000441 -0.003050  0.003495)
 47:   1274.26   0.000828    4.18  0.000203  (-0.012973 -0.005347  0.002413)
 48:   1280.70   0.000323    1.63  0.000079  ( 0.003874  0.007984  0.000126)
 49:   1331.21   0.000864    4.37  0.000203  (-0.000897 -0.008731  0.011206)
 50:   1364.71   0.000014    0.07  0.000003  (-0.000811 -0.001143 -0.001063)
 51:   1400.89   0.000836    4.22  0.000186  ( 0.001554 -0.001385  0.013486)
 52:   1405.78   0.000882    4.46  0.000196  ( 0.002412 -0.011350 -0.007825)
 53:   1446.84   0.001620    8.19  0.000350  (-0.001154  0.016541 -0.008635)
 54:   1461.32   0.001531    7.74  0.000327  (-0.015033 -0.008699 -0.005023)
 55:   1474.63   0.002529   12.78  0.000535  (-0.010967  0.008372 -0.018567)
 56:   1489.25   0.001760    8.90  0.000369  ( 0.014097  0.006791 -0.011136)
 57:   1492.02   0.000578    2.92  0.000121  (-0.008410  0.006549  0.002689)
 58:   1493.98   0.000553    2.79  0.000115  (-0.004051 -0.009883 -0.001160)
 59:   1496.95   0.000944    4.77  0.000197  ( 0.007180  0.001715  0.011931)
 60:   1524.12   0.001511    7.63  0.000309  ( 0.015563  0.004637 -0.006754)
 61:   1638.84   0.000053    0.27  0.000010  (-0.001661 -0.000034 -0.002715)
 62:   1656.59   0.000467    2.36  0.000088  ( 0.008839  0.003130 -0.000257)
 63:   3046.17   0.000770    3.89  0.000079  ( 0.004663  0.002069  0.007267)
 64:   3046.52   0.003870   19.56  0.000396  (-0.004281 -0.004407  0.018938)
 65:   3049.74   0.010585   53.49  0.001083  ( 0.001319 -0.029724 -0.014065)
 66:   3049.83   0.002902   14.67  0.000297  ( 0.014244 -0.006957  0.006756)
 67:   3087.00   0.000801    4.05  0.000081  ( 0.002934  0.001044  0.008439)
 68:   3089.68   0.001153    5.83  0.000117  ( 0.008037  0.002342 -0.006814)
 69:   3115.36   0.004669   23.60  0.000468  ( 0.003348 -0.021042  0.003709)
 70:   3121.18   0.004719   23.85  0.000472  ( 0.019767 -0.000486  0.008993)
 71:   3127.90   0.004912   24.82  0.000490  (-0.013246 -0.006030  0.016680)
 72:   3132.16   0.004080   20.62  0.000406  ( 0.019592  0.001231  0.004596)
 73:   3174.22   0.000436    2.21  0.000043  (-0.002101 -0.002915  0.005478)
 74:   3185.59   0.000075    0.38  0.000007  (-0.002270 -0.001286  0.000750)
 75:   3196.14   0.001237    6.25  0.000121  ( 0.000054  0.004626 -0.009970)
 76:   3205.51   0.004312   21.79  0.000420  (-0.016061  0.003965 -0.012089)
 77:   3213.54   0.002928   14.80  0.000284  ( 0.012048  0.007637 -0.008990)

--------------------------
THERMOCHEMISTRY AT 298.15K
--------------------------

Temperature         ...   298.15 K
Pressure            ...     1.00 atm
Total Mass          ...   166.20 AMU
Quasi RRHO          ...     True
Cut-Off Frequency   ...     1.00 cm^-1

Throughout the following assumptions are being made:
  (1) The electronic state is orbitally nondegenerate
  (2) There are no thermally accessible electronically excited states
  (3) Hindered rotations indicated by low frequency modes are not
      treated as such but are treated as vibrations and this may
      cause some error
  (4) All equations used are the standard statistical mechanics
      equations for an ideal gas
  (5) All vibrations are strictly harmonic

freq.      28.66  E(vib)   ...       0.55
freq.      66.67  E(vib)   ...       0.50
freq.      83.42  E(vib)   ...       0.48
freq.     114.19  E(vib)   ...       0.44
freq.     155.55  E(vib)   ...       0.40
freq.     173.06  E(vib)   ...       0.38
freq.     215.16  E(vib)   ...       0.34
freq.     229.36  E(vib)   ...       0.32
freq.     256.09  E(vib)   ...       0.30
freq.     276.06  E(vib)   ...       0.28
freq.     342.00  E(vib)   ...       0.23
freq.     384.77  E(vib)   ...       0.20
freq.     406.57  E(vib)   ...       0.19
freq.     416.94  E(vib)   ...       0.18
freq.     506.43  E(vib)   ...       0.14
freq.     629.74  E(vib)   ...       0.09
freq.     640.63  E(vib)   ...       0.09
freq.     675.47  E(vib)   ...       0.08
freq.     700.91  E(vib)   ...       0.07
freq.     715.19  E(vib)   ...       0.07
freq.     740.45  E(vib)   ...       0.06
freq.     757.50  E(vib)   ...       0.06
freq.     767.66  E(vib)   ...       0.06
freq.     866.50  E(vib)   ...       0.04
freq.     932.16  E(vib)   ...       0.03
freq.     974.43  E(vib)   ...       0.03
freq.     987.97  E(vib)   ...       0.02
freq.     988.32  E(vib)   ...       0.02
freq.     990.12  E(vib)   ...       0.02
freq.     999.89  E(vib)   ...       0.02
freq.    1012.10  E(vib)   ...       0.02
freq.    1023.26  E(vib)   ...       0.02
freq.    1059.78  E(vib)   ...       0.02
freq.    1060.25  E(vib)   ...       0.02
freq.    1078.50  E(vib)   ...       0.02
freq.    1109.88  E(vib)   ...       0.02
freq.    1129.80  E(vib)   ...       0.01
freq.    1180.25  E(vib)   ...       0.01
freq.    1208.79  E(vib)   ...       0.01
freq.    1259.51  E(vib)   ...       0.01
freq.    1268.97  E(vib)   ...       0.01
freq.    1274.26  E(vib)   ...       0.01
freq.    1280.70  E(vib)   ...       0.01
freq.    1331.21  E(vib)   ...       0.01
freq.    1364.71  E(vib)   ...       0.01
freq.    1400.89  E(vib)   ...       0.00
freq.    1405.78  E(vib)   ...       0.00
freq.    1446.84  E(vib)   ...       0.00
freq.    1461.32  E(vib)   ...       0.00
freq.    1474.63  E(vib)   ...       0.00
freq.    1489.25  E(vib)   ...       0.00
freq.    1492.02  E(vib)   ...       0.00
freq.    1493.98  E(vib)   ...       0.00
freq.    1496.95  E(vib)   ...       0.00
freq.    1524.12  E(vib)   ...       0.00
freq.    1638.84  E(vib)   ...       0.00
freq.    1656.59  E(vib)   ...       0.00
freq.    3046.17  E(vib)   ...       0.00
freq.    3046.52  E(vib)   ...       0.00
freq.    3049.74  E(vib)   ...       0.00
freq.    3049.83  E(vib)   ...       0.00
freq.    3087.00  E(vib)   ...       0.00
freq.    3089.68  E(vib)   ...       0.00
freq.    3115.36  E(vib)   ...       0.00
freq.    3121.18  E(vib)   ...       0.00
freq.    3127.90  E(vib)   ...       0.00
freq.    3132.16  E(vib)   ...       0.00
freq.    3174.22  E(vib)   ...       0.00
freq.    3185.59  E(vib)   ...       0.00
freq.    3196.14  E(vib)   ...       0.00
freq.    3205.51  E(vib)   ...       0.00
freq.    3213.54  E(vib)   ...       0.00

------------
INNER ENERGY
------------

The inner energy is: U= E(el) + E(ZPE) + E(vib) + E(rot) + E(trans)
    E(el)   - is the total energy from the electronic structure calculation
              = E(kin-el) + E(nuc-el) + E(el-el) + E(nuc-nuc)
    E(ZPE)  - the the zero temperature vibrational energy from the frequency calculation
    E(vib)  - the the finite temperature correction to E(ZPE) due to population
              of excited vibrational states
    E(rot)  - is the rotational thermal energy
    E(trans)- is the translational thermal energy

Summary of contributions to the inner energy U:
Electronic energy                ...   -731.02251660 Eh
Zero point energy                ...      0.22436667 Eh     140.79 kcal/mol
Thermal vibrational correction   ...      0.00945677 Eh       5.93 kcal/mol
Thermal rotational correction    ...      0.00141627 Eh       0.89 kcal/mol
Thermal translational correction ...      0.00141627 Eh       0.89 kcal/mol
-----------------------------------------------------------------------
Total thermal energy                   -730.78586062 Eh

Summary of corrections to the electronic energy:
(perhaps to be used in another calculation)
Total thermal correction                  0.01228931 Eh       7.71 kcal/mol
Non-thermal (ZPE) correction              0.22436667 Eh     140.79 kcal/mol
-----------------------------------------------------------------------
Total correction                          0.23665598 Eh     148.50 kcal/mol

--------
ENTHALPY
--------

The enthalpy is H = U + kB*T
                kB is Boltzmann's constant
Total thermal energy              ...   -730.78586062 Eh
Thermal Enthalpy correction       ...      0.00094421 Eh       0.59 kcal/mol
-----------------------------------------------------------------------
Total Enthalpy                    ...   -730.78491641 Eh

Note: Only C1 symmetry has been detected, increase convergence thresholds
      if your molecule has a higher symmetry. Symmetry factor of 1.0 is
      used for the rotational entropy correction.

Note: Rotational entropy computed according to Herzberg
Infrared and Raman Spectra, Chapter V,1, Van Nostrand Reinhold, 1945
Point Group:  C1, Symmetry Number:   1
Rotational constants in cm-1:     0.045584     0.023072     0.019738

Vibrational entropy computed according to the QRRHO of S. Grimme
Chem.Eur.J. 2012 18 9955 using a reference frequency of 100.0 cm-1

-------
ENTROPY
-------

The entropy contributions are T*S = T*(S(el)+S(vib)+S(rot)+S(trans))
     S(el)   - electronic entropy
     S(vib)  - vibrational entropy
     S(rot)  - rotational entropy
     S(trans)- translational entropy
The entropies will be listed as multiplied by the temperature to get
units of energy

                             ****ORCA TERMINATED NORMALLY****
TOTAL RUN TIME: 0 days 0 hours 35 minutes 55 seconds 456 msec
